 VARIABLES = "x_1", "x_2", "x_3"
 ZONE F = POINT , I =         201  , J =         101
   4088.1885851958291        0.0000000000000000        0.0000000000000000     
   4088.1885851958291        0.0000000000000000        0.0000000000000000     
   4088.1885851958291        0.0000000000000000        0.0000000000000000     
   4088.1885851958291        0.0000000000000000        0.0000000000000000     
   4088.1885851958291        0.0000000000000000        0.0000000000000000     
   4088.1885851958291        0.0000000000000000        0.0000000000000000     
   4088.1885851958291        0.0000000000000000        0.0000000000000000     
   4088.1885851958291        0.0000000000000000        0.0000000000000000     
   4088.1885851958291        0.0000000000000000        0.0000000000000000     
   4088.1885851958291        0.0000000000000000        0.0000000000000000     
   4088.1885851958291        0.0000000000000000        0.0000000000000000     
   4088.1885851958291        0.0000000000000000        0.0000000000000000     
   4088.1885851958291        0.0000000000000000        0.0000000000000000     
   4088.1885851958291        0.0000000000000000        0.0000000000000000     
   4088.1885851958291        0.0000000000000000        0.0000000000000000     
   4088.1885851958291        0.0000000000000000        0.0000000000000000     
   4088.1885851958291        0.0000000000000000        0.0000000000000000     
   4088.1885851958291        0.0000000000000000        0.0000000000000000     
   4088.1885851958291        0.0000000000000000        0.0000000000000000     
   4088.1885851958291        0.0000000000000000        0.0000000000000000     
   4088.1885851958291        0.0000000000000000        0.0000000000000000     
   4088.1885851958291        0.0000000000000000        0.0000000000000000     
   4088.1885851958291        0.0000000000000000        0.0000000000000000     
   4088.1885851958291        0.0000000000000000        0.0000000000000000     
   4088.1885851958291        0.0000000000000000        0.0000000000000000     
   4088.1885851958291        0.0000000000000000        0.0000000000000000     
   4088.1885851958291        0.0000000000000000        0.0000000000000000     
   4088.1885851958291        0.0000000000000000        0.0000000000000000     
   4088.1885851958291        0.0000000000000000        0.0000000000000000     
   4088.1885851958291        0.0000000000000000        0.0000000000000000     
   4088.1885851958291        0.0000000000000000        0.0000000000000000     
   4088.1885851958291        0.0000000000000000        0.0000000000000000     
   4088.1885851958291        0.0000000000000000        0.0000000000000000     
   4088.1885851958291        0.0000000000000000        0.0000000000000000     
   4088.1885851958291        0.0000000000000000        0.0000000000000000     
   4088.1885851958291        0.0000000000000000        0.0000000000000000     
   4088.1885851958291        0.0000000000000000        0.0000000000000000     
   4088.1885851958291        0.0000000000000000        0.0000000000000000     
   4088.1885851958291        0.0000000000000000        0.0000000000000000     
   4088.1885851958291        0.0000000000000000        0.0000000000000000     
   4088.1885851958291        0.0000000000000000        0.0000000000000000     
   4088.1885851958291        0.0000000000000000        0.0000000000000000     
   4088.1885851958291        0.0000000000000000        0.0000000000000000     
   4088.1885851958291        0.0000000000000000        0.0000000000000000     
   4088.1885851958291        0.0000000000000000        0.0000000000000000     
   4088.1885851958291        0.0000000000000000        0.0000000000000000     
   4088.1885851958291        0.0000000000000000        0.0000000000000000     
   4088.1885851958291        0.0000000000000000        0.0000000000000000     
   4088.1885851958291        0.0000000000000000        0.0000000000000000     
   4088.1885851958291        0.0000000000000000        0.0000000000000000     
   4088.1885851958291       -0.0000000000000000        0.0000000000000000     
   4088.1885851958291       -0.0000000000000000        0.0000000000000000     
   4088.1885851958291       -0.0000000000000000        0.0000000000000000     
   4088.1885851958291       -0.0000000000000000        0.0000000000000000     
   4088.1885851958291       -0.0000000000000000        0.0000000000000000     
   4088.1885851958291       -0.0000000000000000        0.0000000000000000     
   4088.1885851958291       -0.0000000000000000        0.0000000000000000     
   4088.1885851958291       -0.0000000000000000        0.0000000000000000     
   4088.1885851958291       -0.0000000000000000        0.0000000000000000     
   4088.1885851958291       -0.0000000000000000        0.0000000000000000     
   4088.1885851958291       -0.0000000000000000        0.0000000000000000     
   4088.1885851958291       -0.0000000000000000        0.0000000000000000     
   4088.1885851958291       -0.0000000000000000        0.0000000000000000     
   4088.1885851958291       -0.0000000000000000        0.0000000000000000     
   4088.1885851958291       -0.0000000000000000        0.0000000000000000     
   4088.1885851958291       -0.0000000000000000        0.0000000000000000     
   4088.1885851958291       -0.0000000000000000        0.0000000000000000     
   4088.1885851958291       -0.0000000000000000        0.0000000000000000     
   4088.1885851958291       -0.0000000000000000        0.0000000000000000     
   4088.1885851958291       -0.0000000000000000        0.0000000000000000     
   4088.1885851958291       -0.0000000000000000        0.0000000000000000     
   4088.1885851958291       -0.0000000000000000        0.0000000000000000     
   4088.1885851958291       -0.0000000000000000        0.0000000000000000     
   4088.1885851958291       -0.0000000000000000        0.0000000000000000     
   4088.1885851958291       -0.0000000000000000        0.0000000000000000     
   4088.1885851958291       -0.0000000000000000        0.0000000000000000     
   4088.1885851958291       -0.0000000000000000        0.0000000000000000     
   4088.1885851958291       -0.0000000000000000        0.0000000000000000     
   4088.1885851958291       -0.0000000000000000        0.0000000000000000     
   4088.1885851958291       -0.0000000000000000        0.0000000000000000     
   4088.1885851958291       -0.0000000000000000        0.0000000000000000     
   4088.1885851958291       -0.0000000000000000        0.0000000000000000     
   4088.1885851958291       -0.0000000000000000        0.0000000000000000     
   4088.1885851958291       -0.0000000000000000        0.0000000000000000     
   4088.1885851958291       -0.0000000000000000        0.0000000000000000     
   4088.1885851958291       -0.0000000000000000        0.0000000000000000     
   4088.1885851958291       -0.0000000000000000        0.0000000000000000     
   4088.1885851958291       -0.0000000000000000        0.0000000000000000     
   4088.1885851958291       -0.0000000000000000        0.0000000000000000     
   4088.1885851958291       -0.0000000000000000        0.0000000000000000     
   4088.1885851958291       -0.0000000000000000        0.0000000000000000     
   4088.1885851958291       -0.0000000000000000        0.0000000000000000     
   4088.1885851958291       -0.0000000000000000        0.0000000000000000     
   4088.1885851958291       -0.0000000000000000        0.0000000000000000     
   4088.1885851958291       -0.0000000000000000        0.0000000000000000     
   4088.1885851958291       -0.0000000000000000        0.0000000000000000     
   4088.1885851958291       -0.0000000000000000        0.0000000000000000     
   4088.1885851958291       -0.0000000000000000        0.0000000000000000     
   4088.1885851958291       -0.0000000000000000        0.0000000000000000     
   4088.1885851958291       -0.0000000000000000        0.0000000000000000     
   4088.1885851958291       -0.0000000000000000       -0.0000000000000000     
   4088.1885851958291       -0.0000000000000000       -0.0000000000000000     
   4088.1885851958291       -0.0000000000000000       -0.0000000000000000     
   4088.1885851958291       -0.0000000000000000       -0.0000000000000000     
   4088.1885851958291       -0.0000000000000000       -0.0000000000000000     
   4088.1885851958291       -0.0000000000000000       -0.0000000000000000     
   4088.1885851958291       -0.0000000000000000       -0.0000000000000000     
   4088.1885851958291       -0.0000000000000000       -0.0000000000000000     
   4088.1885851958291       -0.0000000000000000       -0.0000000000000000     
   4088.1885851958291       -0.0000000000000000       -0.0000000000000000     
   4088.1885851958291       -0.0000000000000000       -0.0000000000000000     
   4088.1885851958291       -0.0000000000000000       -0.0000000000000000     
   4088.1885851958291       -0.0000000000000000       -0.0000000000000000     
   4088.1885851958291       -0.0000000000000000       -0.0000000000000000     
   4088.1885851958291       -0.0000000000000000       -0.0000000000000000     
   4088.1885851958291       -0.0000000000000000       -0.0000000000000000     
   4088.1885851958291       -0.0000000000000000       -0.0000000000000000     
   4088.1885851958291       -0.0000000000000000       -0.0000000000000000     
   4088.1885851958291       -0.0000000000000000       -0.0000000000000000     
   4088.1885851958291       -0.0000000000000000       -0.0000000000000000     
   4088.1885851958291       -0.0000000000000000       -0.0000000000000000     
   4088.1885851958291       -0.0000000000000000       -0.0000000000000000     
   4088.1885851958291       -0.0000000000000000       -0.0000000000000000     
   4088.1885851958291       -0.0000000000000000       -0.0000000000000000     
   4088.1885851958291       -0.0000000000000000       -0.0000000000000000     
   4088.1885851958291       -0.0000000000000000       -0.0000000000000000     
   4088.1885851958291       -0.0000000000000000       -0.0000000000000000     
   4088.1885851958291       -0.0000000000000000       -0.0000000000000000     
   4088.1885851958291       -0.0000000000000000       -0.0000000000000000     
   4088.1885851958291       -0.0000000000000000       -0.0000000000000000     
   4088.1885851958291       -0.0000000000000000       -0.0000000000000000     
   4088.1885851958291       -0.0000000000000000       -0.0000000000000000     
   4088.1885851958291       -0.0000000000000000       -0.0000000000000000     
   4088.1885851958291       -0.0000000000000000       -0.0000000000000000     
   4088.1885851958291       -0.0000000000000000       -0.0000000000000000     
   4088.1885851958291       -0.0000000000000000       -0.0000000000000000     
   4088.1885851958291       -0.0000000000000000       -0.0000000000000000     
   4088.1885851958291       -0.0000000000000000       -0.0000000000000000     
   4088.1885851958291       -0.0000000000000000       -0.0000000000000000     
   4088.1885851958291       -0.0000000000000000       -0.0000000000000000     
   4088.1885851958291       -0.0000000000000000       -0.0000000000000000     
   4088.1885851958291       -0.0000000000000000       -0.0000000000000000     
   4088.1885851958291       -0.0000000000000000       -0.0000000000000000     
   4088.1885851958291       -0.0000000000000000       -0.0000000000000000     
   4088.1885851958291       -0.0000000000000000       -0.0000000000000000     
   4088.1885851958291       -0.0000000000000000       -0.0000000000000000     
   4088.1885851958291       -0.0000000000000000       -0.0000000000000000     
   4088.1885851958291       -0.0000000000000000       -0.0000000000000000     
   4088.1885851958291       -0.0000000000000000       -0.0000000000000000     
   4088.1885851958291       -0.0000000000000000       -0.0000000000000000     
   4088.1885851958291        0.0000000000000000       -0.0000000000000000     
   4088.1885851958291        0.0000000000000000       -0.0000000000000000     
   4088.1885851958291        0.0000000000000000       -0.0000000000000000     
   4088.1885851958291        0.0000000000000000       -0.0000000000000000     
   4088.1885851958291        0.0000000000000000       -0.0000000000000000     
   4088.1885851958291        0.0000000000000000       -0.0000000000000000     
   4088.1885851958291        0.0000000000000000       -0.0000000000000000     
   4088.1885851958291        0.0000000000000000       -0.0000000000000000     
   4088.1885851958291        0.0000000000000000       -0.0000000000000000     
   4088.1885851958291        0.0000000000000000       -0.0000000000000000     
   4088.1885851958291        0.0000000000000000       -0.0000000000000000     
   4088.1885851958291        0.0000000000000000       -0.0000000000000000     
   4088.1885851958291        0.0000000000000000       -0.0000000000000000     
   4088.1885851958291        0.0000000000000000       -0.0000000000000000     
   4088.1885851958291        0.0000000000000000       -0.0000000000000000     
   4088.1885851958291        0.0000000000000000       -0.0000000000000000     
   4088.1885851958291        0.0000000000000000       -0.0000000000000000     
   4088.1885851958291        0.0000000000000000       -0.0000000000000000     
   4088.1885851958291        0.0000000000000000       -0.0000000000000000     
   4088.1885851958291        0.0000000000000000       -0.0000000000000000     
   4088.1885851958291        0.0000000000000000       -0.0000000000000000     
   4088.1885851958291        0.0000000000000000       -0.0000000000000000     
   4088.1885851958291        0.0000000000000000       -0.0000000000000000     
   4088.1885851958291        0.0000000000000000       -0.0000000000000000     
   4088.1885851958291        0.0000000000000000       -0.0000000000000000     
   4088.1885851958291        0.0000000000000000       -0.0000000000000000     
   4088.1885851958291        0.0000000000000000       -0.0000000000000000     
   4088.1885851958291        0.0000000000000000       -0.0000000000000000     
   4088.1885851958291        0.0000000000000000       -0.0000000000000000     
   4088.1885851958291        0.0000000000000000       -0.0000000000000000     
   4088.1885851958291        0.0000000000000000       -0.0000000000000000     
   4088.1885851958291        0.0000000000000000       -0.0000000000000000     
   4088.1885851958291        0.0000000000000000       -0.0000000000000000     
   4088.1885851958291        0.0000000000000000       -0.0000000000000000     
   4088.1885851958291        0.0000000000000000       -0.0000000000000000     
   4088.1885851958291        0.0000000000000000       -0.0000000000000000     
   4088.1885851958291        0.0000000000000000       -0.0000000000000000     
   4088.1885851958291        0.0000000000000000       -0.0000000000000000     
   4088.1885851958291        0.0000000000000000       -0.0000000000000000     
   4088.1885851958291        0.0000000000000000       -0.0000000000000000     
   4088.1885851958291        0.0000000000000000       -0.0000000000000000     
   4088.1885851958291        0.0000000000000000       -0.0000000000000000     
   4088.1885851958291        0.0000000000000000       -0.0000000000000000     
   4088.1885851958291        0.0000000000000000       -0.0000000000000000     
   4088.1885851958291        0.0000000000000000       -0.0000000000000000     
   4088.1885851958291        0.0000000000000000       -0.0000000000000000     
   4088.1885851958291        0.0000000000000000       -0.0000000000000000     
   4088.1885851958291        0.0000000000000000       -0.0000000000000000     
   4088.1885851958291        0.0000000000000000       -0.0000000000000000     
   4088.1885851958291        0.0000000000000000       -0.0000000000000000     
   4088.1885851958291        0.0000000000000000        0.0000000000000000     
   4414.3452774160824        138.72638909529766        0.0000000000000000     
   4417.3986839768559        138.75384581444712        4.3605152731032284     
   4420.1199304360662        138.63376193655964        8.7220970023609201     
   4422.5077938159584        138.36609544861727        13.079446911504187     
   4424.5614256457357        137.95101385625841        17.427265836472742     
   4426.2803423172027        137.38889377731593        21.760263047728806     
   4427.6644150595093        136.68032007201012        26.073165496236836     
   4428.7138596324030        135.82608452121517        30.360726958720196     
   4429.4292258351907        134.82718406539308        34.617737059262275     
   4429.8113869253066        133.68481861778014        38.839030145802745     
   4429.8615290363623        132.40038846622852        43.019494001568788     
   4429.5811406804496        130.97549127874845        47.154078372952888     
   4428.9720024138223        129.41191872828861        51.237803296787561     
   4428.0361767386048        127.71165275263574        55.265767211354401     
   4426.7759983062433        125.87686146553240        59.233154836786873     
   4425.1940644808501        123.90989473521233        63.135244811771258     
   4423.2932263128150        121.81327944656283        66.967417074611120     
   4421.0765799647997        119.58971446304939        70.725159977786575     
   4418.5474586239961        117.24206530440908        74.404077126115354     
   4415.7094249260717        114.77335855594271        77.999893929497205     
   4412.5662639078000        112.18677602503547        81.508463862007588     
   4409.1219764971383        109.48564866032422        84.925774419797619     
   4405.3807735414302        106.67345024872347        88.247952770867727     
   4401.3470703665989        103.75379090533242        91.471271090312598     
   4397.0254818528292        100.73041037108440        94.592151575104253     
   4392.4208180052365        97.607171132878605        97.607171132888723     
   4387.5380799916020        94.388051380856879        100.51306573964251     
   4382.3824566133571        91.077137817462472        103.30673446137222     
   4376.9593211707606        87.678618332946172        105.98524313536154     
   4371.2742286786124        84.196774562067091        108.54582770678886     
   4365.3329133849302        80.635974336872138        110.98589721686284     
   4359.1412865419279        77.000664050624906        113.30303643897527     
   4352.7054343760547        73.295360948183486        115.49500815974686     
   4346.0316162022937        69.524645358398018        117.55975510227135     
   4339.1262626268508        65.693152884394905        119.49540148933694     
   4331.9959737822055        61.805566567932630        121.30025424494417     
   4324.6475175389032        57.866609044339157        122.97280383304141     
   4317.0878276396479        53.881034704864298        124.51172473307386     
   4309.3240017030603        49.853621883586378        125.91587555268902     
   4301.3632990468204        45.789165086291078        127.18429877875856     
   4293.2131382829193        41.692467278979706        128.31622016876992     
   4284.8810946411386        37.568332253847792        129.31104778559543     
   4276.3748969808830        33.421557090697398        130.16837067967100     
   4267.7024244556633        29.256924731791422        130.88795722368869     
   4258.8717027992834        25.079196688119591        131.46975310603358     
   4249.8909002075243        20.893105894912811        131.91387899035141     
   4240.7683227943689        16.703349734009763        132.22062784982489     
   4231.5124096068494        12.514583240340254        132.39046198593107     
   4222.1317271879916        8.3314125093401472        132.42400974265723     
   4212.6349636825507        4.1583883215514188        132.32206192834147     
   4203.0309224854518       -1.3659173784793878E-011   132.08556795846809     
   4193.3285154379437       -4.1393304849507198        131.71563173387489     
   4183.5367555813600       -8.2552541490843705        131.21350726990153     
   4173.6647494830968       -12.343500353729867        130.58059409302061     
   4163.7216891537819       -16.399881878787518        129.81843242242280     
   4153.7168435787007       -20.420299699046044        128.92869815487529     
   4143.6595498903234       -24.400747454334603        127.91319767192147     
   4133.5592042120261       -28.337315605497448        126.77386248912867     
   4123.4252522061115       -32.226195269557756        125.51274376762200     
   4113.2671793617137       -36.063681728876553        124.13200670854977     
   4103.0945010601754       -39.846177610585876        122.63392485140945     
   4092.9167524572181       -43.570195734070609        121.02087429732357     
   4082.7434782222294       -47.232361625776143        119.29532787838038     
   4072.5842221758289       -50.829415702116705        117.45984929405937     
   4062.4485168670681       -54.358215122740503        115.51708723553359     
   4052.3458731315113       -57.815735317857957        113.46976951829548     
   4042.2857696708616       -61.199071194748072        111.32069724308397     
   4032.2776426938603       -64.505438029914401        109.07273900451339     
   4022.3308756569122       -67.732172054655365        106.72882516611848     
   4012.4547891412085       -70.876730743034514        104.29194221974676     
   4002.6586309012678       -73.936692812378368        101.76512724635759     
   3992.9515661175669       -76.909757947483115        99.151462494335007     
   3983.3426678835331       -79.793746260672961        96.454070090397622     
   3973.8409079545490       -82.586597500717232        93.676106897108085     
   3964.4551477838741       -85.286370024377220        90.820759529852324     
   3955.1941298674024       -87.891239545013960        87.891239544986647     
   3946.0664694163065       -90.399497673245946        84.890778809654137     
   3937.0806463734289       -92.809550265098821        81.822625062550770     
   3928.2449977862957       -95.119915593440169        78.690037673697020     
   3919.5677105465520       -97.329222358745170        75.496283610045026     
   3911.0568145024931       -99.436207555389558        72.244633612533349     
   3902.7201759484947       -101.43971420972986        68.938358589004110     
   3894.5654914921934       -103.33868900620118        65.580726226223987     
   3886.6002822974624       -105.13217981754984        62.174997823107361     
   3878.8318886985917       -106.81933315512907        58.724425346137458     
   3871.2674651786028       -108.39939155492360        55.232248706921041     
   3863.9139757021585       -109.87169091463819        51.701693260797526     
   3856.7781893914416       -111.23565779679932        48.135967524462487     
   3849.8666765313187       -112.49080671237606        44.538261109656673     
   3843.1858048882909       -113.63673739893828        40.911742869119180     
   3836.7417363260893       -114.67313210684124        37.259559250207161     
   3830.5404236993922       -115.59975290636302        33.584832850848251     
   3824.5876080058747       -116.41643902812940        29.890661171810248     
   3818.8888157757515       -117.12310424854556        26.180115558649856     
   3813.4493566772185       -117.71973433132430        22.456240326135642     
   3808.2743213155086       -118.20638453555459        18.722052057426911     
   3803.3685792028582       -118.58317720010220        14.980539069829684     
   3798.7367768764343       -118.85029941347824        11.234661038540329     
   3794.3833361412471       -119.00800077765444        7.4873487694239973     
   3790.3124524151031       -119.05659127364902        3.7415041115558081     
   3786.5280931530542       -118.99643923605883       -2.4611213297853520E-011
   3783.0339963291649       -118.82796944307131       -3.7343193811340032     
   3779.8336689540838       -118.55166132785676       -7.4586383248345882     
   3776.9303856076663       -118.16804731661958       -11.170169227556217     
   3774.3271869667815       -117.67771129797460       -14.866152125259397     
   3772.0268783095439       -117.08128722771599       -18.543854150064178     
   3770.0320279783064       -116.37945787245448       -22.200568917863063     
   3768.3449657851606       -115.57295369502411       -25.833615857510701     
   3766.9677813450267       -114.66255188398890       -29.440339492235950     
   3765.9023223229674       -113.64907552902127       -33.018108683962517     
   3765.1501925840921       -112.53339294337646       -36.564315851248480     
   3764.7127502359667       -111.31641713413606       -40.076376171565933     
   3764.5911055554925       -109.99910542036105       -43.551726778643669     
   3764.7861187939707       -108.58245919875165       -46.987825965584449     
   3765.2983978561469       -107.06752385587831       -50.382152404447808     
   3766.1282958510737       -105.45538882550885       -53.732204392958764     
   3767.2759085148068       -103.74718778901776       -57.035499138961882     
   3768.7410715071014       -101.94409901631570       -60.289572093186855     
   3770.5233575865918       -100.04734584418711       -63.491976340828707     
   3772.6220736712053       -98.058197288359338       -66.640282062366438     
   3775.0362577929695       -95.977968785058309       -69.732076073952328     
   3777.7646759586819       -93.808023057217795       -72.764961457591170     
   3780.8058189304043       -91.549771099915716       -75.736557291200938     
   3784.1578989421500       -89.204673278999536       -78.644498488490129     
   3787.8188463715383       -86.774240536236448       -81.486435758409925     
   3791.7863063876789       -84.260035693686135       -84.260035693729733     
   3796.0576355989392       -81.663674849339102       -86.962980998043577     
   3800.6298987266505       -78.986828855397192       -89.592970860237770     
   3805.4998653331286       -76.231224869891960       -92.147721485129864     
   3810.6640066347377       -73.398647971648884       -94.624966788628754     
   3816.1184924328509       -70.490942827905428       -97.022459265351060     
   3821.8591881977673       -67.510015403188532       -99.337971036167744     
   3827.8816523425771       -64.457834697354130       -101.56929508263012     
   3834.1811337259187       -61.336434499986275       -103.71424667464790     
   3840.7525694241717       -58.147915147662445       -105.77066499713985     
   3847.5905828153377       -54.894445269907585       -107.73641498067262     
   3854.6894820180023       -51.578263508999918       -109.60938934031165     
   3862.0432587300652       -48.201680198152289       -111.38751082606034     
   3869.6455875126308       -44.767078981993791       -113.06873468732672     
   3877.4898255651829       -41.276918362710802       -114.65105135285792     
   3885.5690130382854       -37.733733154698456       -116.13248932649381     
   3893.8758739301725       -34.140135830116421       -117.51111829794245     
   3902.4028176130441       -30.498817737361446       -118.78505246654126     
   3911.1419410342405       -26.812550174156161       -119.95245407467290     
   3920.0850316361807       -23.084185296737569       -121.01153714612751     
   3929.2235710374694       -19.316656846498681       -121.96057142327591     
   3938.5487395154887       -15.512980675424776       -122.79788649542293     
   3948.0514213283273       -11.676255051758060       -123.52187610917156     
   3957.7222109110189       -7.8096607275513916       -124.13100265004661     
   3967.5514199776017       -3.9164607501283379       -124.62380178301167     
   3977.5290855566718        3.8834498022851933E-011  -124.99888723787940     
   3987.6449789837807        3.9362955618689450       -125.25495572397450     
   3997.8886158692030        7.8889199526714400       -125.39079195677013     
   4008.2492670543811        11.854288548681081       -125.40527377760462     
   4018.7159705646309        15.828739801088737       -125.29737734600390     
   4029.2775445597063        19.808537300237358       -125.06618238261133     
   4039.9226012773083        23.789872199211519       -124.71087743926866     
   4050.6395619578507        27.768866006432535       -124.23076517142468     
   4061.4166727318102        31.741573755113652       -123.62526758679022     
   4072.2420214436411        35.703987555506707       -122.89393124302018     
   4083.1035553788010        39.652040533822408       -122.03643236621359     
   4093.9890998529318        43.581611159512825       -121.05258186119347     
   4104.8863776145872        47.488527960306598       -119.94233018387411     
   4115.7830290054480        51.368574621979434       -118.70577204556869     
   4126.6666328144856        55.217495467353338       -117.34315091884004     
   4137.5247277554290        59.031001306470728       -115.85486331446982     
   4148.3448344899552        62.804775647290057       -114.24146279933005     
   4159.1144781125467        66.534481253644060       -112.50366372538225     
   4169.8212110069662        70.215767034590783       -110.64234464072881     
   4180.4526359788269        73.844275246721821       -108.65855135457998     
   4190.9964295639656        77.415648988472782       -106.55349962919769     
   4201.4403654082507        80.925539963062434       -104.32857747331582     
   4211.7723376112372        84.369616484368905       -101.98534701322376     
   4221.9803839235765        87.743571697885869       -99.525545919607751     
   4232.0527086868387        91.043131986895105       -96.951088370387779     
   4241.9777054037058        94.264065532182116       -94.264065532113847     
   4251.7439788271622        97.402190992021332       -91.466745545014675     