 VARIABLES = "x_1", "x_2", "x_3"
 ZONE F = POINT , I =         201  , J =         101
   794.92673021045459        0.0000000000000000        0.0000000000000000     
   794.23240262680929        0.0000000000000000        0.0000000000000000     
   793.47046286582963        0.0000000000000000        0.0000000000000000     
   792.64449411454757        0.0000000000000000        0.0000000000000000     
   791.75834810520291        0.0000000000000000        0.0000000000000000     
   790.81611968893583        0.0000000000000000        0.0000000000000000     
   789.82212048597512        0.0000000000000000        0.0000000000000000     
   788.78085190431943        0.0000000000000000        0.0000000000000000     
   787.69697781148614        0.0000000000000000        0.0000000000000000     
   786.57529713186386        0.0000000000000000        0.0000000000000000     
   785.42071662615592        0.0000000000000000        0.0000000000000000     
   784.23822408992783        0.0000000000000000        0.0000000000000000     
   783.03286218608969        0.0000000000000000        0.0000000000000000     
   781.80970310191708        0.0000000000000000        0.0000000000000000     
   780.57382419563112        0.0000000000000000        0.0000000000000000     
   779.33028477125708        0.0000000000000000        0.0000000000000000     
   778.08410409408930        0.0000000000000000        0.0000000000000000     
   776.84024073313356        0.0000000000000000        0.0000000000000000     
   775.60357329186195        0.0000000000000000        0.0000000000000000     
   774.37888256491487        0.0000000000000000        0.0000000000000000     
   773.17083513633474        0.0000000000000000        0.0000000000000000     
   771.98396841477756        0.0000000000000000        0.0000000000000000     
   770.82267708310906        0.0000000000000000        0.0000000000000000     
   769.69120092394303        0.0000000000000000        0.0000000000000000     
   768.59361396910049        0.0000000000000000        0.0000000000000000     
   767.53381490963136        0.0000000000000000        0.0000000000000000     
   766.51551869391301        0.0000000000000000        0.0000000000000000     
   765.54224923433469        0.0000000000000000        0.0000000000000000     
   764.61733313805826        0.0000000000000000        0.0000000000000000     
   763.74389437421769        0.0000000000000000        0.0000000000000000     
   762.92484978847926        0.0000000000000000        0.0000000000000000     
   762.16290537601401        0.0000000000000000        0.0000000000000000     
   761.46055322544908        0.0000000000000000        0.0000000000000000     
   760.82006904910486        0.0000000000000000        0.0000000000000000     
   760.24351021864538        0.0000000000000000        0.0000000000000000     
   759.73271423000710        0.0000000000000000        0.0000000000000000     
   759.28929752700913        0.0000000000000000        0.0000000000000000     
   758.91465461924031        0.0000000000000000        0.0000000000000000     
   758.60995743656849        0.0000000000000000        0.0000000000000000     
   758.37615486981520        0.0000000000000000        0.0000000000000000     
   758.21397245470268        0.0000000000000000        0.0000000000000000     
   758.12391216402443        0.0000000000000000        0.0000000000000000     
   758.10625228105812        0.0000000000000000        0.0000000000000000     
   758.16104733546217        0.0000000000000000        0.0000000000000000     
   758.28812809122189        0.0000000000000000        0.0000000000000000     
   758.48710158460085        0.0000000000000000        0.0000000000000000     
   758.75735121844616        0.0000000000000000        0.0000000000000000     
   759.09803692755725        0.0000000000000000        0.0000000000000000     
   759.50809543811044        0.0000000000000000        0.0000000000000000     
   759.98624065227864        0.0000000000000000        0.0000000000000000     
   760.53096419714916       -0.0000000000000000        0.0000000000000000     
   761.14053618474429       -0.0000000000000000        0.0000000000000000     
   761.81300623735103       -0.0000000000000000        0.0000000000000000     
   762.54620483932888       -0.0000000000000000        0.0000000000000000     
   763.33774508305635       -0.0000000000000000        0.0000000000000000     
   764.18502488253773       -0.0000000000000000        0.0000000000000000     
   765.08522973334539       -0.0000000000000000        0.0000000000000000     
   766.03533610184843       -0.0000000000000000        0.0000000000000000     
   767.03211552997357       -0.0000000000000000        0.0000000000000000     
   768.07213954386896       -0.0000000000000000        0.0000000000000000     
   769.15178545567221       -0.0000000000000000        0.0000000000000000     
   770.26724314692319       -0.0000000000000000        0.0000000000000000     
   771.41452291988344       -0.0000000000000000        0.0000000000000000     
   772.58946449893699       -0.0000000000000000        0.0000000000000000     
   773.78774725823530       -0.0000000000000000        0.0000000000000000     
   775.00490174365837       -0.0000000000000000        0.0000000000000000     
   776.23632254692495       -0.0000000000000000        0.0000000000000000     
   777.47728257718688       -0.0000000000000000        0.0000000000000000     
   778.72294876071214       -0.0000000000000000        0.0000000000000000     
   779.96839918226976       -0.0000000000000000        0.0000000000000000     
   781.20864166269632       -0.0000000000000000        0.0000000000000000     
   782.43863374598516       -0.0000000000000000        0.0000000000000000     
   783.65330404629663       -0.0000000000000000        0.0000000000000000     
   784.84757488086814       -0.0000000000000000        0.0000000000000000     
   786.01638608922872       -0.0000000000000000        0.0000000000000000     
   787.15471991288859       -0.0000000000000000        0.0000000000000000     
   788.25762678324475       -0.0000000000000000        0.0000000000000000     
   789.32025183944609       -0.0000000000000000        0.0000000000000000     
   790.33786197298070       -0.0000000000000000        0.0000000000000000     
   791.30587317248091       -0.0000000000000000        0.0000000000000000     
   792.21987792137236       -0.0000000000000000        0.0000000000000000     
   793.07567238318529       -0.0000000000000000        0.0000000000000000     
   793.86928309527639       -0.0000000000000000        0.0000000000000000     
   794.59699288197658       -0.0000000000000000        0.0000000000000000     
   795.25536569330814       -0.0000000000000000        0.0000000000000000     
   795.84127007582106       -0.0000000000000000        0.0000000000000000     
   796.35190098810961       -0.0000000000000000        0.0000000000000000     
   796.78479968529348       -0.0000000000000000        0.0000000000000000     
   797.13787141423086       -0.0000000000000000        0.0000000000000000     
   797.40940068423822       -0.0000000000000000        0.0000000000000000     
   797.59806390633810       -0.0000000000000000        0.0000000000000000     
   797.70293922696453       -0.0000000000000000        0.0000000000000000     
   797.72351341901299       -0.0000000000000000        0.0000000000000000     
   797.65968573327007       -0.0000000000000000        0.0000000000000000     
   797.51176865572450       -0.0000000000000000        0.0000000000000000     
   797.28048556001613       -0.0000000000000000        0.0000000000000000     
   796.96696528829648       -0.0000000000000000        0.0000000000000000     
   796.57273373699297       -0.0000000000000000        0.0000000000000000     
   796.09970256537031       -0.0000000000000000        0.0000000000000000     
   795.55015518340338       -0.0000000000000000        0.0000000000000000     
   794.92673021045027       -0.0000000000000000       -0.0000000000000000     
   794.23240262680451       -0.0000000000000000       -0.0000000000000000     
   793.47046286582452       -0.0000000000000000       -0.0000000000000000     
   792.64449411454200       -0.0000000000000000       -0.0000000000000000     
   791.75834810519700       -0.0000000000000000       -0.0000000000000000     
   790.81611968892946       -0.0000000000000000       -0.0000000000000000     
   789.82212048596830       -0.0000000000000000       -0.0000000000000000     
   788.78085190431239       -0.0000000000000000       -0.0000000000000000     
   787.69697781147875       -0.0000000000000000       -0.0000000000000000     
   786.57529713185636       -0.0000000000000000       -0.0000000000000000     
   785.42071662614831       -0.0000000000000000       -0.0000000000000000     
   784.23822408992010       -0.0000000000000000       -0.0000000000000000     
   783.03286218608173       -0.0000000000000000       -0.0000000000000000     
   781.80970310190912       -0.0000000000000000       -0.0000000000000000     
   780.57382419562293       -0.0000000000000000       -0.0000000000000000     
   779.33028477124890       -0.0000000000000000       -0.0000000000000000     
   778.08410409408100       -0.0000000000000000       -0.0000000000000000     
   776.84024073312537       -0.0000000000000000       -0.0000000000000000     
   775.60357329185388       -0.0000000000000000       -0.0000000000000000     
   774.37888256490714       -0.0000000000000000       -0.0000000000000000     
   773.17083513632679       -0.0000000000000000       -0.0000000000000000     
   771.98396841476972       -0.0000000000000000       -0.0000000000000000     
   770.82267708310133       -0.0000000000000000       -0.0000000000000000     
   769.69120092393575       -0.0000000000000000       -0.0000000000000000     
   768.59361396909333       -0.0000000000000000       -0.0000000000000000     
   767.53381490962443       -0.0000000000000000       -0.0000000000000000     
   766.51551869390653       -0.0000000000000000       -0.0000000000000000     
   765.54224923432832       -0.0000000000000000       -0.0000000000000000     
   764.61733313805235       -0.0000000000000000       -0.0000000000000000     
   763.74389437421223       -0.0000000000000000       -0.0000000000000000     
   762.92484978847415       -0.0000000000000000       -0.0000000000000000     
   762.16290537600912       -0.0000000000000000       -0.0000000000000000     
   761.46055322544453       -0.0000000000000000       -0.0000000000000000     
   760.82006904910077       -0.0000000000000000       -0.0000000000000000     
   760.24351021864175       -0.0000000000000000       -0.0000000000000000     
   759.73271423000381       -0.0000000000000000       -0.0000000000000000     
   759.28929752700651       -0.0000000000000000       -0.0000000000000000     
   758.91465461923781       -0.0000000000000000       -0.0000000000000000     
   758.60995743656667       -0.0000000000000000       -0.0000000000000000     
   758.37615486981394       -0.0000000000000000       -0.0000000000000000     
   758.21397245470189       -0.0000000000000000       -0.0000000000000000     
   758.12391216402409       -0.0000000000000000       -0.0000000000000000     
   758.10625228105812       -0.0000000000000000       -0.0000000000000000     
   758.16104733546285       -0.0000000000000000       -0.0000000000000000     
   758.28812809122292       -0.0000000000000000       -0.0000000000000000     
   758.48710158460244       -0.0000000000000000       -0.0000000000000000     
   758.75735121844832       -0.0000000000000000       -0.0000000000000000     
   759.09803692755952       -0.0000000000000000       -0.0000000000000000     
   759.50809543811306       -0.0000000000000000       -0.0000000000000000     
   759.98624065228216       -0.0000000000000000       -0.0000000000000000     
   760.53096419715303        0.0000000000000000       -0.0000000000000000     
   761.14053618474861        0.0000000000000000       -0.0000000000000000     
   761.81300623735558        0.0000000000000000       -0.0000000000000000     
   762.54620483933400        0.0000000000000000       -0.0000000000000000     
   763.33774508306169        0.0000000000000000       -0.0000000000000000     
   764.18502488254353        0.0000000000000000       -0.0000000000000000     
   765.08522973335153        0.0000000000000000       -0.0000000000000000     
   766.03533610185491        0.0000000000000000       -0.0000000000000000     
   767.03211552998027        0.0000000000000000       -0.0000000000000000     
   768.07213954387589        0.0000000000000000       -0.0000000000000000     
   769.15178545567949        0.0000000000000000       -0.0000000000000000     
   770.26724314693058        0.0000000000000000       -0.0000000000000000     
   771.41452291989117        0.0000000000000000       -0.0000000000000000     
   772.58946449894495        0.0000000000000000       -0.0000000000000000     
   773.78774725824303        0.0000000000000000       -0.0000000000000000     
   775.00490174366644        0.0000000000000000       -0.0000000000000000     
   776.23632254693302        0.0000000000000000       -0.0000000000000000     
   777.47728257719496        0.0000000000000000       -0.0000000000000000     
   778.72294876072033        0.0000000000000000       -0.0000000000000000     
   779.96839918227806        0.0000000000000000       -0.0000000000000000     
   781.20864166270474        0.0000000000000000       -0.0000000000000000     
   782.43863374599312        0.0000000000000000       -0.0000000000000000     
   783.65330404630447        0.0000000000000000       -0.0000000000000000     
   784.84757488087564        0.0000000000000000       -0.0000000000000000     
   786.01638608923656        0.0000000000000000       -0.0000000000000000     
   787.15471991289587        0.0000000000000000       -0.0000000000000000     
   788.25762678325179        0.0000000000000000       -0.0000000000000000     
   789.32025183945302        0.0000000000000000       -0.0000000000000000     
   790.33786197298730        0.0000000000000000       -0.0000000000000000     
   791.30587317248705        0.0000000000000000       -0.0000000000000000     
   792.21987792137838        0.0000000000000000       -0.0000000000000000     
   793.07567238319075        0.0000000000000000       -0.0000000000000000     
   793.86928309528139        0.0000000000000000       -0.0000000000000000     
   794.59699288198101        0.0000000000000000       -0.0000000000000000     
   795.25536569331211        0.0000000000000000       -0.0000000000000000     
   795.84127007582458        0.0000000000000000       -0.0000000000000000     
   796.35190098811256        0.0000000000000000       -0.0000000000000000     
   796.78479968529621        0.0000000000000000       -0.0000000000000000     
   797.13787141423302        0.0000000000000000       -0.0000000000000000     
   797.40940068424004        0.0000000000000000       -0.0000000000000000     
   797.59806390633901        0.0000000000000000       -0.0000000000000000     
   797.70293922696499        0.0000000000000000       -0.0000000000000000     
   797.72351341901299        0.0000000000000000       -0.0000000000000000     
   797.65968573326950        0.0000000000000000       -0.0000000000000000     
   797.51176865572313        0.0000000000000000       -0.0000000000000000     
   797.28048556001420        0.0000000000000000       -0.0000000000000000     
   796.96696528829409        0.0000000000000000       -0.0000000000000000     
   796.57273373699013        0.0000000000000000       -0.0000000000000000     
   796.09970256536690        0.0000000000000000       -0.0000000000000000     
   795.55015518339951        0.0000000000000000       -0.0000000000000000     
   794.92673021044595        0.0000000000000000        0.0000000000000000     
   746.80219332936565        23.469204409328349        0.0000000000000000     
   745.99134077217536        23.432154279366245       0.73638511435226128     
   745.14897789416671        23.371041427479845        1.4703812947812551     
   744.27538464633210        23.285991503741897        2.2011742737080557     
   743.37126189402306        23.177171562245938        2.9279576775975382     
   742.43774058925021        23.044789753350209        3.6499361274812259     
   741.47638647974838        22.889094639871743        4.3663283221021407     
   740.48920026090468        22.710374137838954        5.0763700563098624     
   739.47861315766272        22.508954089864826        5.7793171277983468     
   738.44747800470498        22.285196486511431        6.4744480868797636     
   737.39905597217739        22.039497357964724        7.1610667866763436     
   736.33699915861939        21.772284364725422        7.8385046948020856     
   735.26532934048396        21.484014121669876        8.5061229321754972     
   734.18841322678304        21.175169294594191        9.1633140099027486     
   733.11093461645987        20.846255512113462        9.8095032410253467     
   732.03786389397180        20.497798138471737        10.444149810151679     
   730.97442532457626        20.130338954394293        11.066747490396475     
   729.92606262470770        19.744432793589322        11.676825003447314     
   728.89840328486457        19.340644181926791        12.273946024786705     
   727.89722211313551        18.919544024766587        12.857708841960493     
   726.92840444789931        18.481706385483282        13.427745679163014     
   725.99790945953669        18.027705395069443        13.983721706195190     
   725.11173392465764        17.558112328936495        14.525333753963958     
   724.27587681397188        17.073492882821899        15.052308762077814     
   723.49630498815850        16.574404675205773        15.564401986733442     
   722.77892024657478        16.061394998984486        16.061394998986149     
   722.12952792295368        15.534998840478700        16.543093504682652     
   721.55380717185051        14.995737179290048        17.009325017857766     
   721.05728304078798        14.444115578166667        17.459936419322194     
   720.64530037697125        13.880623067977742        17.894791431575722     
   720.32299957497855        13.305731329193804        18.313768040151622     
   720.09529413373332        12.719894167966700        18.716755890124610     
   719.96684995783642        12.123547282025232        19.103653684882811     
   719.94206631032114        11.517108309155821        19.474366612459779     
   720.02505830126756        10.900977149013702        19.828803822824437     
   720.21964077951998        10.275536547386713        20.166875977606892     
   720.52931348288030        9.6411529307775208        20.488492891857785     
   720.95724729546384        8.9981774782398141        20.793561285652043     
   721.50627145911142        8.3469474167510764        21.081982661695022     
   722.17886158861199        7.6877875259777637        21.353651323603291     
   722.97712834762137        7.0210118380331705        21.608452548233345     
   723.90280665329715        6.3469255176896962        21.846260924332821     
   724.95724529241159        5.6658269084314483        22.066938868890674     
   726.14139684977590        4.9780097296688837        22.270335331860817     
   727.45580787085896        4.2837654103354970        22.456284699412411     
   728.90060920422275        3.5833855439034079        22.624605905498441     
   730.47550649554478        2.8771644495502988        22.775101761304832     
   732.17977083322046        2.1654018237505102        22.907558512009494     
   734.01222957559833        1.4484054659203445        23.021745630207025     
   735.97125742143987       0.72649406090089452        23.117415855293583     
   738.05476781788877       -2.3985591641468905E-012   23.194305488010261     
   740.26020483372224      -0.73072777899064112        23.252134949159409     
   742.58453565947025       -1.4653209538245953        23.290609611180557     
   745.02424392964053       -2.2033890047402065        23.309420910743889     
   747.57532409519820       -2.9445164508940196        23.308247749730640     
   750.23327710591707       -3.6882601630353569        23.286758190862948     
   752.99310769147826       -4.4341467812240181        23.244611452763753     
   755.84932355636499       -5.1816702685649556        23.181460207318342     
   758.79593682567020       -5.9302896340386377        23.096953179825093     
   761.82646809586367       -6.6794268594793156        22.990738049528112     
   764.93395345515444       -7.4284650674914339        22.862464644690174     
   768.11095484116288       -8.1767469684843430        22.711788422381602     
   771.34957409795311       -8.9235736259254281        22.538374218635074     
   774.64147107887538       -9.6682035792327987        22.341900249576913     
   777.97788611506132       -10.409852363320724        22.122062338645087     
   781.34966713083770       -11.147692462544862        21.878578339123859     
   784.74730163610195       -11.880853734550461        21.611192715074338     
   788.16095376140777       -12.608424336199574        21.319681237459168     
   791.58050642418152       -13.329452179261015        21.003855746018484     
   794.99560862456974       -14.042946937836634        20.663568921451134     
   798.39572776792181       -14.747882622555876        20.298719006910730     
   801.77020679944951       -15.443200728429154        19.909254412982321     
   805.10832581737213       -16.127813953992714        19.495178136409841     
   808.39936770669794       -16.800610479142758        19.056551920148824     
   811.63268721012241       -17.460458778043357        18.593500081060046     
   814.79778272926421       -18.106212931956602        18.106212931950974     
   817.88437003292097       -18.736718395093778        17.594949726887918     
   820.88245694374211       -19.350818154978658        17.060041062862847     
   823.78241798529962       -19.947359217737006        16.501890677063869     
   826.57506790234345       -20.525199338588283        15.920976587146624     
   829.25173292209422       -21.083213909025474        15.317851531935824     
   831.80431860700867       -21.620302905115995        14.693142681713228     
   834.22537316204205       -22.135397796390400        14.047550600400292     
   836.50814510334715       -22.627468312194022        13.381847456170073     
   838.64663427072537       -23.095528962367332        12.696874491909076     
   840.63563527178496       -23.538645211806383        11.993538782030322     
   842.47077257921876       -23.955939213843262        11.272809316921341     
   844.14852666003753       -24.346595015370738        10.535712470294285     
   845.66625069225438       -24.709863157004904        9.7833269174119160     
   847.02217761457541       -25.045064604015973        9.0167780831549376     
   848.21541745183276       -25.351593957859933        8.2372322078026077     
   849.24594505654125       -25.628921913439953        7.4458901249342073     
   850.11457859845632       -25.876596943201488        6.6439808498338042     
   850.82294931317517       -26.094246205285074        5.8327550781143769     
   851.37346318200093       -26.281575688696861        5.0134786929930808     
   851.76925535394366       -26.438369623318348        4.1874263758771697     
   852.01413823317046       -26.564489196119954        3.3558754088788283     
   852.11254423924186       -26.659870626805699        2.5200997498667910     
   852.06946430189953       -26.724522666014920        1.6813644510395100     
   851.89038317722736       -26.758523586956223       0.84092048116548790     
   851.58121266891078       -26.762017746854546       -5.5350036629431574E-012
   851.14822380938722       -26.735211797855069      -0.84018787869032330     
   850.59797900386855       -26.678370628125915       -1.6784608109437338     
   849.93726506919347       -26.591813112990629       -2.5136664207015098     
   849.17302801314361       -26.475907753208016       -3.3446849702650479     
   848.31231030232493       -26.331068273252960       -4.1704315116121951     
   847.36219126199910       -26.157749246912765       -4.9898575359295920     
   846.32973114313370       -25.956441810986810       -5.8019521465404278     
   845.22191928387565       -25.727669520647627       -6.6057427868713150     
   844.04562668760389       -25.471984392359118       -7.4002955602427614     
   842.80756324017716       -25.189963172402233       -8.1847151821013711     
   841.51423969686630       -24.882203861248207       -8.9581446079005875     
   840.17193448617547       -24.549322516432106       -9.7197643812706094     
   838.78666530417718       -24.191950349366454       -10.468791747508694     
   837.36416540956952       -23.810731124814282       -11.204479576893277     
   835.90986447642683       -23.406318865597619       -11.926115141010570     
   834.42887381824119       -22.979375859605803       -12.633018783311705     
   832.92597576282105       -22.530570961318539       -13.324542522619941     
   831.40561693208872       -22.060578175875722       -14.000068625399564     
   829.87190516294322       -21.570075510199818       -14.659008179389598     
   828.32860979413840       -21.059744072781982       -15.300799697792931     
   826.77916503852839       -20.530267401444100       -15.924907779678207     
   825.22667615909847       -19.982330996645249       -16.530821848669337     
   823.67392816991560       -19.416622036666951       -17.118054988423182     
   822.12339678868454       -18.833829250241706       -17.686142889879857     
   820.57726137511963       -18.234642921838120       -18.234642921847556     
   819.03741959820240       -17.619755004841004       -18.763133333186904     
   817.50550358496673       -16.989859318226458       -19.271212591710366     
   815.98289731330090       -16.345651802994084       -19.758498861928942     
   814.47075502097391       -15.687830815548919       -20.224629620975222     
   812.97002041245798       -15.017097436395725       -20.669261409420777     
   811.48144645394439       -14.334155773892073       -21.092069711297306     
   810.00561555517390       -13.639713244382019       -21.492748955434003     
   808.54295994430879       -12.934480811775392       -21.871012628249094     
   807.09378204916015       -12.219173171532026       -22.226593486389312     
   805.65827470472959       -11.494508866030655       -22.559243856109450     
   804.23654101344641       -10.761210320433388       -22.868736005033330     
   802.82861369082275       -10.020003790370730       -23.154862570949732     
   801.43447373575304       -9.2716192150514303       -23.417437031579158     
   800.05406827156094       -8.5167899717148412       -23.656294198810823     
   798.68732741134181       -7.7562525296682718       -23.871290720757457     
   797.33418000938116       -6.9907460044533805       -24.062305575114880     
   795.99456816959685       -6.2210116149371650       -24.229240537741706     
   794.66846039219718       -5.4477920482862583       -24.372020611090253     
   793.35586325116788       -4.6718307398294350       -24.490594398113281     
   792.05683150784057       -3.8938710767028732       -24.584934408529847     
   790.77147657966293       -3.1146555358780486       -24.655037285838713     
   789.49997329832343       -2.3349247686560930       -24.700923945194930     
   788.24256490752043       -1.5554166449508409       -24.722639614186608     
   786.99956626772371      -0.77686527164730890       -24.720253770628801     
   785.77136525311425        7.6718575462195574E-012  -24.693859973693243     
   784.55842234428656       0.77445556266338778       -24.643575586974190     
   783.36126843899297        1.5457845214116297       -24.569541394406606     
   782.18050092199951        2.3132776275401969       -24.471921112259626     
   781.01677805370662        3.0762341630129826       -24.350900802677572     
   779.87081175532148        3.8339627621034831       -24.206688196388377     
   778.74335888582584        4.5857821578118969       -24.039511934201105     
   777.63521112250680        5.3310218421674191       -23.849620738730309     
   776.54718357224476        6.0690226312349207       -23.637282529377732     
   775.48010225489384        6.7991371275708916       -23.402783494940206     
   774.43479061283142        7.5207300749768518       -23.146427139268987     
   773.41205521200527        8.2331786026348031       -22.868533316160608     
   772.41267080950786        8.9358723580427473       -22.569437270095516     
   771.43736497086570        9.6282135305526193       -22.249488699552280     
   770.48680242682690        10.309616769708052       -21.909050859405845     
   769.56156936455477        10.979509004943877       -21.548499718373048     
   768.66215785179327        11.637329175499774       -21.168223186603811     
   767.78895059487377        12.282527881582228       -20.768620427343851     
   766.94220623243609        12.914566969840724       -20.350101265132718     
   766.12204536648630        13.532919068075490       -19.913085701266112     
   765.32843753098371        14.137067085728635       -19.458003545270614     
   764.56118929551474        14.726503698102263       -18.985294168933617     
   763.81993369778957        15.300730833364183       -18.495406387033675     
   763.10412119360001        15.859259182222399       -17.988798466352687     
   762.41301230642478        16.401607750645919       -17.465938261858113     
   761.74567215090315        16.927303476163651       -16.927303476151391     
   761.10096699473058        17.435880928061508       -16.373382035428897     