 VARIABLES = "x_1", "x_2", "x_3"
 ZONE F = POINT , I =         201  , J =         101
  -1539.0278801113593       -0.0000000000000000       -0.0000000000000000     
  -1539.0278801113593       -0.0000000000000000       -0.0000000000000000     
  -1539.0278801113593       -0.0000000000000000       -0.0000000000000000     
  -1539.0278801113593       -0.0000000000000000       -0.0000000000000000     
  -1539.0278801113593       -0.0000000000000000       -0.0000000000000000     
  -1539.0278801113593       -0.0000000000000000       -0.0000000000000000     
  -1539.0278801113593       -0.0000000000000000       -0.0000000000000000     
  -1539.0278801113593       -0.0000000000000000       -0.0000000000000000     
  -1539.0278801113593       -0.0000000000000000       -0.0000000000000000     
  -1539.0278801113593       -0.0000000000000000       -0.0000000000000000     
  -1539.0278801113593       -0.0000000000000000       -0.0000000000000000     
  -1539.0278801113593       -0.0000000000000000       -0.0000000000000000     
  -1539.0278801113593       -0.0000000000000000       -0.0000000000000000     
  -1539.0278801113593       -0.0000000000000000       -0.0000000000000000     
  -1539.0278801113593       -0.0000000000000000       -0.0000000000000000     
  -1539.0278801113593       -0.0000000000000000       -0.0000000000000000     
  -1539.0278801113593       -0.0000000000000000       -0.0000000000000000     
  -1539.0278801113593       -0.0000000000000000       -0.0000000000000000     
  -1539.0278801113593       -0.0000000000000000       -0.0000000000000000     
  -1539.0278801113593       -0.0000000000000000       -0.0000000000000000     
  -1539.0278801113593       -0.0000000000000000       -0.0000000000000000     
  -1539.0278801113593       -0.0000000000000000       -0.0000000000000000     
  -1539.0278801113593       -0.0000000000000000       -0.0000000000000000     
  -1539.0278801113593       -0.0000000000000000       -0.0000000000000000     
  -1539.0278801113593       -0.0000000000000000       -0.0000000000000000     
  -1539.0278801113593       -0.0000000000000000       -0.0000000000000000     
  -1539.0278801113593       -0.0000000000000000       -0.0000000000000000     
  -1539.0278801113593       -0.0000000000000000       -0.0000000000000000     
  -1539.0278801113593       -0.0000000000000000       -0.0000000000000000     
  -1539.0278801113593       -0.0000000000000000       -0.0000000000000000     
  -1539.0278801113593       -0.0000000000000000       -0.0000000000000000     
  -1539.0278801113593       -0.0000000000000000       -0.0000000000000000     
  -1539.0278801113593       -0.0000000000000000       -0.0000000000000000     
  -1539.0278801113593       -0.0000000000000000       -0.0000000000000000     
  -1539.0278801113593       -0.0000000000000000       -0.0000000000000000     
  -1539.0278801113593       -0.0000000000000000       -0.0000000000000000     
  -1539.0278801113593       -0.0000000000000000       -0.0000000000000000     
  -1539.0278801113593       -0.0000000000000000       -0.0000000000000000     
  -1539.0278801113593       -0.0000000000000000       -0.0000000000000000     
  -1539.0278801113593       -0.0000000000000000       -0.0000000000000000     
  -1539.0278801113593       -0.0000000000000000       -0.0000000000000000     
  -1539.0278801113593       -0.0000000000000000       -0.0000000000000000     
  -1539.0278801113593       -0.0000000000000000       -0.0000000000000000     
  -1539.0278801113593       -0.0000000000000000       -0.0000000000000000     
  -1539.0278801113593       -0.0000000000000000       -0.0000000000000000     
  -1539.0278801113593       -0.0000000000000000       -0.0000000000000000     
  -1539.0278801113593       -0.0000000000000000       -0.0000000000000000     
  -1539.0278801113593       -0.0000000000000000       -0.0000000000000000     
  -1539.0278801113593       -0.0000000000000000       -0.0000000000000000     
  -1539.0278801113593       -0.0000000000000000       -0.0000000000000000     
  -1539.0278801113593        0.0000000000000000       -0.0000000000000000     
  -1539.0278801113593        0.0000000000000000       -0.0000000000000000     
  -1539.0278801113593        0.0000000000000000       -0.0000000000000000     
  -1539.0278801113593        0.0000000000000000       -0.0000000000000000     
  -1539.0278801113593        0.0000000000000000       -0.0000000000000000     
  -1539.0278801113593        0.0000000000000000       -0.0000000000000000     
  -1539.0278801113593        0.0000000000000000       -0.0000000000000000     
  -1539.0278801113593        0.0000000000000000       -0.0000000000000000     
  -1539.0278801113593        0.0000000000000000       -0.0000000000000000     
  -1539.0278801113593        0.0000000000000000       -0.0000000000000000     
  -1539.0278801113593        0.0000000000000000       -0.0000000000000000     
  -1539.0278801113593        0.0000000000000000       -0.0000000000000000     
  -1539.0278801113593        0.0000000000000000       -0.0000000000000000     
  -1539.0278801113593        0.0000000000000000       -0.0000000000000000     
  -1539.0278801113593        0.0000000000000000       -0.0000000000000000     
  -1539.0278801113593        0.0000000000000000       -0.0000000000000000     
  -1539.0278801113593        0.0000000000000000       -0.0000000000000000     
  -1539.0278801113593        0.0000000000000000       -0.0000000000000000     
  -1539.0278801113593        0.0000000000000000       -0.0000000000000000     
  -1539.0278801113593        0.0000000000000000       -0.0000000000000000     
  -1539.0278801113593        0.0000000000000000       -0.0000000000000000     
  -1539.0278801113593        0.0000000000000000       -0.0000000000000000     
  -1539.0278801113593        0.0000000000000000       -0.0000000000000000     
  -1539.0278801113593        0.0000000000000000       -0.0000000000000000     
  -1539.0278801113593        0.0000000000000000       -0.0000000000000000     
  -1539.0278801113593        0.0000000000000000       -0.0000000000000000     
  -1539.0278801113593        0.0000000000000000       -0.0000000000000000     
  -1539.0278801113593        0.0000000000000000       -0.0000000000000000     
  -1539.0278801113593        0.0000000000000000       -0.0000000000000000     
  -1539.0278801113593        0.0000000000000000       -0.0000000000000000     
  -1539.0278801113593        0.0000000000000000       -0.0000000000000000     
  -1539.0278801113593        0.0000000000000000       -0.0000000000000000     
  -1539.0278801113593        0.0000000000000000       -0.0000000000000000     
  -1539.0278801113593        0.0000000000000000       -0.0000000000000000     
  -1539.0278801113593        0.0000000000000000       -0.0000000000000000     
  -1539.0278801113593        0.0000000000000000       -0.0000000000000000     
  -1539.0278801113593        0.0000000000000000       -0.0000000000000000     
  -1539.0278801113593        0.0000000000000000       -0.0000000000000000     
  -1539.0278801113593        0.0000000000000000       -0.0000000000000000     
  -1539.0278801113593        0.0000000000000000       -0.0000000000000000     
  -1539.0278801113593        0.0000000000000000       -0.0000000000000000     
  -1539.0278801113593        0.0000000000000000       -0.0000000000000000     
  -1539.0278801113593        0.0000000000000000       -0.0000000000000000     
  -1539.0278801113593        0.0000000000000000       -0.0000000000000000     
  -1539.0278801113593        0.0000000000000000       -0.0000000000000000     
  -1539.0278801113593        0.0000000000000000       -0.0000000000000000     
  -1539.0278801113593        0.0000000000000000       -0.0000000000000000     
  -1539.0278801113593        0.0000000000000000       -0.0000000000000000     
  -1539.0278801113593        0.0000000000000000       -0.0000000000000000     
  -1539.0278801113593        0.0000000000000000       -0.0000000000000000     
  -1539.0278801113593        0.0000000000000000        0.0000000000000000     
  -1539.0278801113593        0.0000000000000000        0.0000000000000000     
  -1539.0278801113593        0.0000000000000000        0.0000000000000000     
  -1539.0278801113593        0.0000000000000000        0.0000000000000000     
  -1539.0278801113593        0.0000000000000000        0.0000000000000000     
  -1539.0278801113593        0.0000000000000000        0.0000000000000000     
  -1539.0278801113593        0.0000000000000000        0.0000000000000000     
  -1539.0278801113593        0.0000000000000000        0.0000000000000000     
  -1539.0278801113593        0.0000000000000000        0.0000000000000000     
  -1539.0278801113593        0.0000000000000000        0.0000000000000000     
  -1539.0278801113593        0.0000000000000000        0.0000000000000000     
  -1539.0278801113593        0.0000000000000000        0.0000000000000000     
  -1539.0278801113593        0.0000000000000000        0.0000000000000000     
  -1539.0278801113593        0.0000000000000000        0.0000000000000000     
  -1539.0278801113593        0.0000000000000000        0.0000000000000000     
  -1539.0278801113593        0.0000000000000000        0.0000000000000000     
  -1539.0278801113593        0.0000000000000000        0.0000000000000000     
  -1539.0278801113593        0.0000000000000000        0.0000000000000000     
  -1539.0278801113593        0.0000000000000000        0.0000000000000000     
  -1539.0278801113593        0.0000000000000000        0.0000000000000000     
  -1539.0278801113593        0.0000000000000000        0.0000000000000000     
  -1539.0278801113593        0.0000000000000000        0.0000000000000000     
  -1539.0278801113593        0.0000000000000000        0.0000000000000000     
  -1539.0278801113593        0.0000000000000000        0.0000000000000000     
  -1539.0278801113593        0.0000000000000000        0.0000000000000000     
  -1539.0278801113593        0.0000000000000000        0.0000000000000000     
  -1539.0278801113593        0.0000000000000000        0.0000000000000000     
  -1539.0278801113593        0.0000000000000000        0.0000000000000000     
  -1539.0278801113593        0.0000000000000000        0.0000000000000000     
  -1539.0278801113593        0.0000000000000000        0.0000000000000000     
  -1539.0278801113593        0.0000000000000000        0.0000000000000000     
  -1539.0278801113593        0.0000000000000000        0.0000000000000000     
  -1539.0278801113593        0.0000000000000000        0.0000000000000000     
  -1539.0278801113593        0.0000000000000000        0.0000000000000000     
  -1539.0278801113593        0.0000000000000000        0.0000000000000000     
  -1539.0278801113593        0.0000000000000000        0.0000000000000000     
  -1539.0278801113593        0.0000000000000000        0.0000000000000000     
  -1539.0278801113593        0.0000000000000000        0.0000000000000000     
  -1539.0278801113593        0.0000000000000000        0.0000000000000000     
  -1539.0278801113593        0.0000000000000000        0.0000000000000000     
  -1539.0278801113593        0.0000000000000000        0.0000000000000000     
  -1539.0278801113593        0.0000000000000000        0.0000000000000000     
  -1539.0278801113593        0.0000000000000000        0.0000000000000000     
  -1539.0278801113593        0.0000000000000000        0.0000000000000000     
  -1539.0278801113593        0.0000000000000000        0.0000000000000000     
  -1539.0278801113593        0.0000000000000000        0.0000000000000000     
  -1539.0278801113593        0.0000000000000000        0.0000000000000000     
  -1539.0278801113593        0.0000000000000000        0.0000000000000000     
  -1539.0278801113593        0.0000000000000000        0.0000000000000000     
  -1539.0278801113593        0.0000000000000000        0.0000000000000000     
  -1539.0278801113593       -0.0000000000000000        0.0000000000000000     
  -1539.0278801113593       -0.0000000000000000        0.0000000000000000     
  -1539.0278801113593       -0.0000000000000000        0.0000000000000000     
  -1539.0278801113593       -0.0000000000000000        0.0000000000000000     
  -1539.0278801113593       -0.0000000000000000        0.0000000000000000     
  -1539.0278801113593       -0.0000000000000000        0.0000000000000000     
  -1539.0278801113593       -0.0000000000000000        0.0000000000000000     
  -1539.0278801113593       -0.0000000000000000        0.0000000000000000     
  -1539.0278801113593       -0.0000000000000000        0.0000000000000000     
  -1539.0278801113593       -0.0000000000000000        0.0000000000000000     
  -1539.0278801113593       -0.0000000000000000        0.0000000000000000     
  -1539.0278801113593       -0.0000000000000000        0.0000000000000000     
  -1539.0278801113593       -0.0000000000000000        0.0000000000000000     
  -1539.0278801113593       -0.0000000000000000        0.0000000000000000     
  -1539.0278801113593       -0.0000000000000000        0.0000000000000000     
  -1539.0278801113593       -0.0000000000000000        0.0000000000000000     
  -1539.0278801113593       -0.0000000000000000        0.0000000000000000     
  -1539.0278801113593       -0.0000000000000000        0.0000000000000000     
  -1539.0278801113593       -0.0000000000000000        0.0000000000000000     
  -1539.0278801113593       -0.0000000000000000        0.0000000000000000     
  -1539.0278801113593       -0.0000000000000000        0.0000000000000000     
  -1539.0278801113593       -0.0000000000000000        0.0000000000000000     
  -1539.0278801113593       -0.0000000000000000        0.0000000000000000     
  -1539.0278801113593       -0.0000000000000000        0.0000000000000000     
  -1539.0278801113593       -0.0000000000000000        0.0000000000000000     
  -1539.0278801113593       -0.0000000000000000        0.0000000000000000     
  -1539.0278801113593       -0.0000000000000000        0.0000000000000000     
  -1539.0278801113593       -0.0000000000000000        0.0000000000000000     
  -1539.0278801113593       -0.0000000000000000        0.0000000000000000     
  -1539.0278801113593       -0.0000000000000000        0.0000000000000000     
  -1539.0278801113593       -0.0000000000000000        0.0000000000000000     
  -1539.0278801113593       -0.0000000000000000        0.0000000000000000     
  -1539.0278801113593       -0.0000000000000000        0.0000000000000000     
  -1539.0278801113593       -0.0000000000000000        0.0000000000000000     
  -1539.0278801113593       -0.0000000000000000        0.0000000000000000     
  -1539.0278801113593       -0.0000000000000000        0.0000000000000000     
  -1539.0278801113593       -0.0000000000000000        0.0000000000000000     
  -1539.0278801113593       -0.0000000000000000        0.0000000000000000     
  -1539.0278801113593       -0.0000000000000000        0.0000000000000000     
  -1539.0278801113593       -0.0000000000000000        0.0000000000000000     
  -1539.0278801113593       -0.0000000000000000        0.0000000000000000     
  -1539.0278801113593       -0.0000000000000000        0.0000000000000000     
  -1539.0278801113593       -0.0000000000000000        0.0000000000000000     
  -1539.0278801113593       -0.0000000000000000        0.0000000000000000     
  -1539.0278801113593       -0.0000000000000000        0.0000000000000000     
  -1539.0278801113593       -0.0000000000000000        0.0000000000000000     
  -1539.0278801113593       -0.0000000000000000        0.0000000000000000     
  -1539.0278801113593       -0.0000000000000000        0.0000000000000000     
  -1539.0278801113593       -0.0000000000000000        0.0000000000000000     
  -1539.0278801113593       -0.0000000000000000        0.0000000000000000     
  -1539.0278801113593       -0.0000000000000000       -0.0000000000000000     
  -1299.5642803417943       -40.840452814460086       -0.0000000000000000     
  -1277.9563793483414       -40.141579944070514       -1.2614999707228920     
  -1257.2431305638627       -39.432492240492287       -2.4808821282928619     
  -1237.3914274786353       -38.714012127060279       -3.6595516026196742     
  -1218.3697150267230       -37.986892094094415       -4.7988604673466471     
  -1200.1479378915926       -37.251819768318775       -5.9001086250760606     
  -1182.6974883387700       -36.509422598671108       -6.9645448378060806     
  -1165.9911540934195       -35.760272184310274       -7.9933678688041718     
  -1150.0030666867633       -35.004888269482848       -8.9877277071519668     
  -1134.7086506152477       -34.243742428684861       -9.9487268505438635     
  -1120.0845735884016       -33.477261464286499       -10.877421625686315     
  -1106.1086980838102       -32.705830537505229       -11.774823528898422     
  -1092.7600343790784       -31.929796052337721       -12.641900572320333     
  -1080.0186951899068       -31.149468310811962       -13.479578623550982     
  -1067.8658520092763       -30.365123956706984       -14.288742728609817     
  -1056.2836932143623       -29.577008223721336       -15.070238409893186     
  -1045.2553839842863       -28.785337002954936       -15.824872932312408     
  -1034.7650280525522       -27.990298743510863       -16.553416532092339     
  -1024.7976313022623       -27.192056199020648       -17.256603603804901     
  -1015.3390671995547       -26.390748031954555       -17.935133842138132     
  -1006.3760440506338       -25.586490286693806       -18.589673335680747     
  -997.89607405986965       -24.779377741514534       -19.220855610653381     
  -989.88744416045586       -23.969485148862660       -19.829282623059807     
  -982.33918858466302       -23.156868372581613       -20.415525698177014     
  -975.24106313762411       -22.341565430089439       -20.980126416667336     
  -968.58352113660942       -21.523597446886171       -21.523597446888399     
  -962.35769097667969       -20.702969530202573       -22.046423323207883     
  -956.55535528335975       -19.879671568076621       -22.549061170308541     
  -951.16893161335213       -19.053678959660967       -23.031941373601409     
  -946.19145466524628       -18.224953282120275       -23.495468195958125     
  -941.61655996356262       -17.393442899070916       -23.940020341032049     
  -937.43846898123093       -16.559083515143055       -24.365951463467436     
  -933.65197566765960       -15.721798680905975       -24.773590626299178     
  -930.25243435187372       -14.881500252088827       -25.163242705827489     
  -927.23574899271421       -14.038088806749501       -25.535188744213521     
  -924.59836375078407       -13.191454023792151       -25.889686249987292     
  -922.33725485964146       -12.341475026007538       -26.226969446589187     
  -920.44992377668370       -11.488020690609153       -26.547249468983384     
  -918.93439159717116       -10.630949930059499       -26.850714508286455     
  -917.78919471794666       -9.7701119458258443       -27.137529904249305     
  -917.01338174053797       -8.9053464575707295       -27.407838185315114     
  -916.60651160653163       -8.0364839101698688       -27.661759055852368     
  -916.56865296132025       -7.1633456608580675       -27.899389330029827     
  -916.90038474558958       -6.2857441487321761       -28.120802811660802     
  -917.60279801715899       -5.4034830487885621       -28.326050119196797     
  -918.67749900908814       -4.5163574126416473       -28.515158454897261     
  -920.12661343322100       -3.6241537980593743       -28.688131317041243     
  -921.95279204163398       -2.7266503894623151       -28.844948153880370     
  -924.15921746170147       -1.8236171115652160       -28.985563957859387     
  -926.74961232373653      -0.91481573839487751       -29.109908798451691     
  -929.72824870336365        3.0214671164402466E-012  -29.217887291772772     
  -933.09995890392861       0.92108431075162556       -29.309378004944548     
  -936.87014760732552        1.8486992286778414       -29.384232792988744     
  -941.04480542461067        2.7831145014876761       -29.442276065828107     
  -945.63052388062670        3.7246074666844664       -29.483303982770927     
  -950.63451186957957        4.6734629171082913       -29.507083571648376     
  -956.06461362100742        5.6299729517135804       -29.513351769565642     
  -961.92932821785814        6.5944368079009612       -29.501814382019319     
  -968.23783071034745        7.5671606713740385       -29.472144956925597     
  -974.99999487084995        8.5484574590982358       -29.423983569899111     
  -982.22641763620561        9.5386465704918830       -29.356935516923642     
  -989.92844528438570        10.538053601473960       -29.270569910365857     
  -998.11820139233350        11.547010015422250       -29.164418174106146     
  -1006.8086166208635        12.565852764452782       -29.037972433401357     
  -1016.0134603705746        13.594923853709696       -28.890683794958360     
  -1025.7473743496037        14.634569840544270       -28.721960512591473     
  -1036.0259080895330        15.685141259554602       -28.531166033770234     
  -1046.8655564395388        16.746991963442394       -28.317616922345849     
  -1058.2837990606508        17.820478368509118       -28.080580652787148     
  -1070.2991419314249        18.905958592348586       -27.819273271375014     
  -1082.9311608629100        20.003791469882238       -27.532856920013018     
  -1096.2005470041438        21.114335432313364       -27.220437218634334     
  -1110.1291542987983        22.237947231830717       -26.881060502641372     
  -1124.7400488284966        23.374980492952968       -26.513710912435421     
  -1140.0575599478229        24.525784069256243       -26.117307332910723     
  -1156.1073330793281        25.690700181846445       -25.690700181838462     
  -1172.9163839928183        26.870062313307844       -25.232668047399070     
  -1190.5131543406876        28.064192827957488       -24.741914176785034     
  -1208.9275681586557        29.273400286040431       -24.217062819855929     
  -1228.1910889674095        30.497976415993502       -23.656655434352484     
  -1248.3367770235066        31.738192705064407       -23.059146762250773     
  -1269.3993461654061        32.994296564380718       -22.422900790556966     
  -1291.4152195803313        34.266507020005101       -21.746186614319107     
  -1314.4225836771666        35.555009876577792       -21.027174224991782     
  -1338.4614390867662        36.859952294831892       -20.263930253679064     
  -1363.5736476206005        38.181436718576499       -19.454413706367330     
  -1389.8029737978045        39.519514080695444       -18.596471737231322     
  -1417.1951192954152        40.874176211340092       -17.687835516668624     
  -1445.7977483823252        42.245347364859995       -16.726116263128169     
  -1475.6605020594250        43.632874775198772       -15.708801522315502     
  -1506.8349982413829        45.036518142606631       -14.633251794274241     
  -1539.3748148740706        46.455937947748417       -13.496697628482814     
  -1573.3354523802473        47.890682482841456       -12.296237329811097     
  -1608.7742712592469        49.340173483631254       -11.028835444321297     
  -1645.7504000288923        50.803690241184029       -9.6913222238474468     
  -1684.3246079851488        52.280352069126806       -8.2803943024278244     
  -1724.5591364637546        53.769099000706959       -6.7926168563557141     
  -1766.5174814166860        55.268670591635967       -5.2244275631783239     
  -1810.2641191658849        56.777582710065410       -3.5721427236587862     
  -1855.8641661719996        58.294102205364347       -1.8319659646521333     
  -1903.3829625669812        59.816219364015772        1.2371376344451917E-011
  -1952.8855680628417        61.341618085579270        1.9277380094998793     
  -2004.4361576905549        62.867643746238031        3.9552968873288723     
  -2058.0973036800042        64.391268764234184        6.0867669831791407     
  -2113.9291287156575        65.909055943106168        8.3262500712767711     
  -2171.9883148627632        67.417119748005533        10.677822779595131     
  -2232.3269517464764        68.911085770706535        13.145492656736653     
  -2294.9912071984172        70.386048763655538        15.733145925183527     
  -2360.0198037087744        71.836529776046177        18.444485926762571     
  -2427.4422848180229        73.256433108825604        21.282961246516919     
  -2497.2770572682725        74.639004023681537        24.251682514520063     
  -2569.5291975659561        75.976788395519918        27.353326943475498     
  -2644.1880158774275        77.261595789388707        30.590029777447793     
  -2721.2243762103153        78.484467769754616        33.963262020217257     
  -2800.5877799689292        79.635653607966830        37.473694098923694     
  -2882.2032305535745        80.704595933973451        41.121045519548254     
  -2965.9679100134899        81.679929266895812        44.903921105277888     
  -3051.7477150997938        82.549494735263977        48.819635095321402     
  -3139.3737195076365        83.300374633077553        52.864025234836561     
  -3228.6386515537656        83.918950715038861        57.031260013709215     
  -3319.2935016279262        84.390990266659188        61.313643409246410     
  -3411.0444007245369        84.701763936939514        65.701422835678983     
  -3503.5499389688553        84.836199030306929        70.182607460746368     
  -3596.4191195040198        84.779071354127908        74.742805549122977     
  -3689.2101659985865        84.515237744210083        79.365090935879849     
  -3781.4304183622853        84.029909989294637        84.029909989338123     
  -3872.5375575078215        83.308969013658171        88.715041328561881     
  -3961.9423923555564        82.339315855189682        93.395620927777614     
  -4049.0134169800335        81.109253242345005        98.044244866835314     
  -4133.0832996100125        79.608888534227177        102.63116067942562     
  -4213.4573960314974        77.830545618650703        107.12455584997834     
  -4289.4242875456803        75.769170307808636        111.49094842475867     
  -4360.2682302202911        73.422711135195613        115.69567994445076     
  -4425.2832729379625        70.792455585080106        119.70350512070762     
  -4483.7886650435585        67.883301025583279        123.47926616876491     
  -4535.1450414696592        64.703940274197663        126.98863292980592     
  -4578.7707573874823        61.266944010285847        130.19888346071824     
  -4614.1576596863279        57.588726224985137        133.07969430680654     
  -4640.8855417808300        53.689384440201614        135.60390587996048     
  -4658.6345410666863        49.592413206470646        137.74822682460072     
  -4667.1948094412919        45.324296886633675        139.49384236217338     
  -4666.4729149682644        40.913995289679534        140.82689548896843     
  -4656.4946085021647        36.392342614845866        141.73881637350303     
  -4637.4037982717664        31.791385711280057        142.22648385673554     
  -4609.4577989901236        27.143691295126867        142.29221283834875     
  -4573.0191390327691        22.481653147021820        141.94357160968360     
  -4528.5443995482765        17.836829351167978        141.19304290585524     
  -4476.5707065932438        13.239336510420967        140.05755072655941     
  -4417.7005906975064        8.7173229879894105        138.55788115173343     
  -4352.5859634999497        4.2965371543195578        136.71802906635017     
  -4281.9119406704212       -4.1806331824904590E-011   134.56450382171954     
  -4206.3811722182891       -4.1522150610186728        132.12562559133096     
  -4126.6992372935711       -8.1430982900661064        129.43084093880850     
  -4043.5615343693553       -11.958723621993649        126.51008145180315     
  -3957.6419628468384       -15.588184214713520        123.39318380580357     
  -3869.5835606326905       -19.023457542822072        120.10938387510014     
  -3779.9911434687265       -22.259215111903515        116.68689198788219     
  -3689.4258920399429       -25.292591865962248        113.15255149235061     
  -3598.4017554040456       -28.122929490724093        109.53157869354519     
  -3507.3834846884934       -30.751506327542284        105.84737904585705     
  -3416.7860778620425       -33.181264745614982        102.12143225011781     
  -3326.9754019087950       -35.416544784758131        98.373237536027887     
  -3238.2697593756488       -37.462830847096463        94.620309790205965     
  -3150.9421782781037       -39.326516308983727        90.878217172160163     
  -3065.2232241594666       -41.014689226548029        87.160651294763127     
  -2981.3041575601824       -42.534940864364188        83.479521791370956     
  -2899.3402866818101       -43.895197601765730        79.845068025614978     
  -2819.4543916365733       -45.103575858046312        76.265981721590322     
  -2741.7401219376516       -46.168259004293084        72.749535324437360     
  -2666.2652918830750       -47.097394765362452        69.301711888712006     
  -2593.0750187021804       -47.899011326409344        65.927333198065071     
  -2522.1946655658780       -48.580950210164694        62.630183623635645     
  -2453.6325658385786       -49.150813951821661        59.413127921324893     
  -2387.3825164499958       -49.615926639559014        56.278221749529038     
  -2323.4260372629410       -49.983305486276592        53.226814164758984     
  -2261.7344001270712       -50.259641732294007        50.259641732257599     
  -2202.2704362699237       -50.451289333939727        47.376914183618133     