 VARIABLES = "x_1", "x_2", "x_3"
 ZONE F = POINT , I =         201  , J =         101
   379.48051013683278        0.0000000000000000        0.0000000000000000     
   373.54017063116095        0.0000000000000000        0.0000000000000000     
   367.91979215587480        0.0000000000000000        0.0000000000000000     
   362.61379923334823        0.0000000000000000        0.0000000000000000     
   357.61589713655621        0.0000000000000000        0.0000000000000000     
   352.91932202544780        0.0000000000000000        0.0000000000000000     
   348.51704527703345        0.0000000000000000        0.0000000000000000     
   344.40193917621491        0.0000000000000000        0.0000000000000000     
   340.56691027223155        0.0000000000000000        0.0000000000000000     
   337.00500587270744        0.0000000000000000        0.0000000000000000     
   333.70949837337702        0.0000000000000000        0.0000000000000000     
   330.67395142173154        0.0000000000000000        0.0000000000000000     
   327.89227129239362        0.0000000000000000        0.0000000000000000     
   325.35874631012308        0.0000000000000000        0.0000000000000000     
   323.06807668846193        0.0000000000000000        0.0000000000000000     
   321.01539675156050        0.0000000000000000        0.0000000000000000     
   319.19629116630404        0.0000000000000000        0.0000000000000000     
   317.60680652388373        0.0000000000000000        0.0000000000000000     
   316.24345936713883        0.0000000000000000        0.0000000000000000     
   315.10324155554662        0.0000000000000000        0.0000000000000000     
   314.18362368747194        0.0000000000000000        0.0000000000000000     
   313.48255715367651        0.0000000000000000        0.0000000000000000     
   312.99847527219907        0.0000000000000000        0.0000000000000000     
   312.73029384816249        0.0000000000000000        0.0000000000000000     
   312.67741140894105        0.0000000000000000        0.0000000000000000     
   312.83970928189228        0.0000000000000000        0.0000000000000000     
   313.21755160529375        0.0000000000000000        0.0000000000000000     
   313.81178529019189        0.0000000000000000        0.0000000000000000     
   314.62373987864532        0.0000000000000000        0.0000000000000000     
   315.65522716943781        0.0000000000000000        0.0000000000000000     
   316.90854040277225        0.0000000000000000        0.0000000000000000     
   318.38645270761702        0.0000000000000000        0.0000000000000000     
   320.09221441588983        0.0000000000000000        0.0000000000000000     
   322.02954873281033        0.0000000000000000        0.0000000000000000     
   324.20264511840173        0.0000000000000000        0.0000000000000000     
   326.61614957661124        0.0000000000000000        0.0000000000000000     
   329.27515086062340        0.0000000000000000        0.0000000000000000     
   332.18516137979668        0.0000000000000000        0.0000000000000000     
   335.35209132875860        0.0000000000000000        0.0000000000000000     
   338.78221424549633        0.0000000000000000        0.0000000000000000     
   342.48212183527494        0.0000000000000000        0.0000000000000000     
   346.45866546336362        0.0000000000000000        0.0000000000000000     
   350.71888121475200        0.0000000000000000        0.0000000000000000     
   355.26989483759246        0.0000000000000000        0.0000000000000000     
   360.11880222608914        0.0000000000000000        0.0000000000000000     
   365.27252035988016        0.0000000000000000        0.0000000000000000     
   370.73760281039250        0.0000000000000000        0.0000000000000000     
   376.52001307200487        0.0000000000000000        0.0000000000000000     
   382.62484811676097        0.0000000000000000        0.0000000000000000     
   389.05600377098978        0.0000000000000000        0.0000000000000000     
   395.81577287107791       -0.0000000000000000        0.0000000000000000     
   402.90436682201374       -0.0000000000000000        0.0000000000000000     
   410.31935136631347       -0.0000000000000000        0.0000000000000000     
   418.05498835979506       -0.0000000000000000        0.0000000000000000     
   426.10147752252232       -0.0000000000000000        0.0000000000000000     
   434.44409596497604       -0.0000000000000000        0.0000000000000000     
   443.06223935135125       -0.0000000000000000        0.0000000000000000     
   451.92837748739220       -0.0000000000000000        0.0000000000000000     
   461.00694953637685       -0.0000000000000000        0.0000000000000000     
   470.25324046512401       -0.0000000000000000        0.0000000000000000     
   479.61230085082786       -0.0000000000000000        0.0000000000000000     
   489.01799634758373       -0.0000000000000000        0.0000000000000000     
   498.39229940841523       -0.0000000000000000        0.0000000000000000     
   507.64496134502775       -0.0000000000000000        0.0000000000000000     
   516.67372278505673       -0.0000000000000000        0.0000000000000000     
   525.36522854075508       -0.0000000000000000        0.0000000000000000     
   533.59680097944852       -0.0000000000000000        0.0000000000000000     
   541.23918626772343       -0.0000000000000000        0.0000000000000000     
   548.16031458728844       -0.0000000000000000        0.0000000000000000     
   554.23000795895223       -0.0000000000000000        0.0000000000000000     
   559.32543518561351       -0.0000000000000000        0.0000000000000000     
   563.33697014176005       -0.0000000000000000        0.0000000000000000     
   566.17398380851239       -0.0000000000000000        0.0000000000000000     
   567.77002315098002       -0.0000000000000000        0.0000000000000000     
   568.08682852578613       -0.0000000000000000        0.0000000000000000     
   567.11672991968851       -0.0000000000000000        0.0000000000000000     
   564.88313459382152       -0.0000000000000000        0.0000000000000000     
   561.43904648021282       -0.0000000000000000        0.0000000000000000     
   556.86379724833739       -0.0000000000000000        0.0000000000000000     
   551.25837323231247       -0.0000000000000000        0.0000000000000000     
   544.73985435562895       -0.0000000000000000        0.0000000000000000     
   537.43552342705743       -0.0000000000000000        0.0000000000000000     
   529.47716137324346       -0.0000000000000000        0.0000000000000000     
   520.99593812481044       -0.0000000000000000        0.0000000000000000     
   512.11817041181155       -0.0000000000000000        0.0000000000000000     
   502.96207628181054       -0.0000000000000000        0.0000000000000000     
   493.63553404271113       -0.0000000000000000        0.0000000000000000     
   484.23476288869909       -0.0000000000000000        0.0000000000000000     
   474.84378673011918       -0.0000000000000000        0.0000000000000000     
   465.53451807909425       -0.0000000000000000        0.0000000000000000     
   456.36729805139879       -0.0000000000000000        0.0000000000000000     
   447.39174352876807       -0.0000000000000000        0.0000000000000000     
   438.64777600759777       -0.0000000000000000        0.0000000000000000     
   430.16673302942519       -0.0000000000000000        0.0000000000000000     
   421.97248857128693       -0.0000000000000000        0.0000000000000000     
   414.08253120703796       -0.0000000000000000        0.0000000000000000     
   406.50896729273842       -0.0000000000000000        0.0000000000000000     
   399.25943075695562       -0.0000000000000000        0.0000000000000000     
   392.33789164454629       -0.0000000000000000        0.0000000000000000     
   385.74536295107777       -0.0000000000000000        0.0000000000000000     
   379.48051013679259       -0.0000000000000000       -0.0000000000000000     
   373.54017063112292       -0.0000000000000000       -0.0000000000000000     
   367.91979215583893       -0.0000000000000000       -0.0000000000000000     
   362.61379923331435       -0.0000000000000000       -0.0000000000000000     
   357.61589713652438       -0.0000000000000000       -0.0000000000000000     
   352.91932202541767       -0.0000000000000000       -0.0000000000000000     
   348.51704527700537       -0.0000000000000000       -0.0000000000000000     
   344.40193917618871       -0.0000000000000000       -0.0000000000000000     
   340.56691027220717       -0.0000000000000000       -0.0000000000000000     
   337.00500587268499       -0.0000000000000000       -0.0000000000000000     
   333.70949837335621       -0.0000000000000000       -0.0000000000000000     
   330.67395142171239       -0.0000000000000000       -0.0000000000000000     
   327.89227129237617       -0.0000000000000000       -0.0000000000000000     
   325.35874631010716       -0.0000000000000000       -0.0000000000000000     
   323.06807668844760       -0.0000000000000000       -0.0000000000000000     
   321.01539675154783       -0.0000000000000000       -0.0000000000000000     
   319.19629116629284       -0.0000000000000000       -0.0000000000000000     
   317.60680652387407       -0.0000000000000000       -0.0000000000000000     
   316.24345936713053       -0.0000000000000000       -0.0000000000000000     
   315.10324155553985       -0.0000000000000000       -0.0000000000000000     
   314.18362368746654       -0.0000000000000000       -0.0000000000000000     
   313.48255715367259       -0.0000000000000000       -0.0000000000000000     
   312.99847527219669       -0.0000000000000000       -0.0000000000000000     
   312.73029384816147       -0.0000000000000000       -0.0000000000000000     
   312.67741140894140       -0.0000000000000000       -0.0000000000000000     
   312.83970928189405       -0.0000000000000000       -0.0000000000000000     
   313.21755160529699       -0.0000000000000000       -0.0000000000000000     
   313.81178529019655       -0.0000000000000000       -0.0000000000000000     
   314.62373987865141       -0.0000000000000000       -0.0000000000000000     
   315.65522716944537       -0.0000000000000000       -0.0000000000000000     
   316.90854040278123       -0.0000000000000000       -0.0000000000000000     
   318.38645270762748       -0.0000000000000000       -0.0000000000000000     
   320.09221441590182       -0.0000000000000000       -0.0000000000000000     
   322.02954873282386       -0.0000000000000000       -0.0000000000000000     
   324.20264511841691       -0.0000000000000000       -0.0000000000000000     
   326.61614957662789       -0.0000000000000000       -0.0000000000000000     
   329.27515086064176       -0.0000000000000000       -0.0000000000000000     
   332.18516137981663       -0.0000000000000000       -0.0000000000000000     
   335.35209132878026       -0.0000000000000000       -0.0000000000000000     
   338.78221424551987       -0.0000000000000000       -0.0000000000000000     
   342.48212183530018       -0.0000000000000000       -0.0000000000000000     
   346.45866546339079       -0.0000000000000000       -0.0000000000000000     
   350.71888121478105       -0.0000000000000000       -0.0000000000000000     
   355.26989483762333       -0.0000000000000000       -0.0000000000000000     
   360.11880222612200       -0.0000000000000000       -0.0000000000000000     
   365.27252035991512       -0.0000000000000000       -0.0000000000000000     
   370.73760281042951       -0.0000000000000000       -0.0000000000000000     
   376.52001307204392       -0.0000000000000000       -0.0000000000000000     
   382.62484811680230       -0.0000000000000000       -0.0000000000000000     
   389.05600377103315       -0.0000000000000000       -0.0000000000000000     
   395.81577287112361        0.0000000000000000       -0.0000000000000000     
   402.90436682206160        0.0000000000000000       -0.0000000000000000     
   410.31935136636349        0.0000000000000000       -0.0000000000000000     
   418.05498835984696        0.0000000000000000       -0.0000000000000000     
   426.10147752257620        0.0000000000000000       -0.0000000000000000     
   434.44409596503175        0.0000000000000000       -0.0000000000000000     
   443.06223935140889        0.0000000000000000       -0.0000000000000000     
   451.92837748745126        0.0000000000000000       -0.0000000000000000     
   461.00694953643716        0.0000000000000000       -0.0000000000000000     
   470.25324046518523        0.0000000000000000       -0.0000000000000000     
   479.61230085088982        0.0000000000000000       -0.0000000000000000     
   489.01799634764575        0.0000000000000000       -0.0000000000000000     
   498.39229940847662        0.0000000000000000       -0.0000000000000000     
   507.64496134508829        0.0000000000000000       -0.0000000000000000     
   516.67372278511516        0.0000000000000000       -0.0000000000000000     
   525.36522854081113        0.0000000000000000       -0.0000000000000000     
   533.59680097950093        0.0000000000000000       -0.0000000000000000     
   541.23918626777163        0.0000000000000000       -0.0000000000000000     
   548.16031458733153        0.0000000000000000       -0.0000000000000000     
   554.23000795898918        0.0000000000000000       -0.0000000000000000     
   559.32543518564353        0.0000000000000000       -0.0000000000000000     
   563.33697014178290        0.0000000000000000       -0.0000000000000000     
   566.17398380852705        0.0000000000000000       -0.0000000000000000     
   567.77002315098650        0.0000000000000000       -0.0000000000000000     
   568.08682852578397        0.0000000000000000       -0.0000000000000000     
   567.11672991967782        0.0000000000000000       -0.0000000000000000     
   564.88313459380277        0.0000000000000000       -0.0000000000000000     
   561.43904648018633        0.0000000000000000       -0.0000000000000000     
   556.86379724830363        0.0000000000000000       -0.0000000000000000     
   551.25837323227267        0.0000000000000000       -0.0000000000000000     
   544.73985435558336        0.0000000000000000       -0.0000000000000000     
   537.43552342700718        0.0000000000000000       -0.0000000000000000     
   529.47716137318923        0.0000000000000000       -0.0000000000000000     
   520.99593812475314        0.0000000000000000       -0.0000000000000000     
   512.11817041175186        0.0000000000000000       -0.0000000000000000     
   502.96207628174966        0.0000000000000000       -0.0000000000000000     
   493.63553404264906        0.0000000000000000       -0.0000000000000000     
   484.23476288863719        0.0000000000000000       -0.0000000000000000     
   474.84378673005767        0.0000000000000000       -0.0000000000000000     
   465.53451807903343        0.0000000000000000       -0.0000000000000000     
   456.36729805133905        0.0000000000000000       -0.0000000000000000     
   447.39174352870981        0.0000000000000000       -0.0000000000000000     
   438.64777600754110        0.0000000000000000       -0.0000000000000000     
   430.16673302937005        0.0000000000000000       -0.0000000000000000     
   421.97248857123395        0.0000000000000000       -0.0000000000000000     
   414.08253120698691        0.0000000000000000       -0.0000000000000000     
   406.50896729268953        0.0000000000000000       -0.0000000000000000     
   399.25943075690878        0.0000000000000000       -0.0000000000000000     
   392.33789164450184        0.0000000000000000       -0.0000000000000000     
   385.74536295103530        0.0000000000000000       -0.0000000000000000     
   379.48051013675240        0.0000000000000000        0.0000000000000000     
   423.98849266729593        13.324375169882757        0.0000000000000000     
   421.75163330184029        13.247538944452085       0.41632068328803390     
   419.51284029954121        13.157707063771666       0.82781276173824592     
   417.28177481365998        13.055409413539190        1.2340995370195238     
   415.06773178890279        12.941172900755946        1.6348503289162262     
   412.87968058890220        12.815519621955227        2.0297789027916275     
   410.72630459354332        12.678965140831457        2.4186419541873305     
   408.61603921542110        12.532016842425826        2.8012376483954715     
   406.55710799425759        12.375172338892048        3.1774042086575087     
   404.55755660831642        12.208917909070115        3.5470185442203883     
   402.62528479308025        12.033726960428460        3.9099949085324255     
   400.76807628088221        11.850058507261956        4.2662835780954431     
   398.99362697268094        11.658355663289921        4.6158695436223507     
   397.30957162703493        11.459044149974135        4.9587712069134815     
   395.72350940414719        11.252530824008081        5.2950390790184656     
   394.24302863735704        11.039202228586831        5.6247544775810363     
   392.87573122337182        10.819423173348721        5.9480282235911899     
   391.62925702858439        10.593535347401174        6.2649993399455797     
   390.51130870450692        10.361855968726431        6.5758337561273468     
   389.52967729300946        10.124676471636203        6.8807230248749196     
   388.69226898371261        9.8822612319300820        7.1798830578564781     
   388.00713336325254        9.6348463271270539        7.4735528880647433     
   387.48249347054241        9.3826383266873119        7.7619934668752659     
   387.12677794452969        9.1258131046153288        8.0454865034612819     
   386.94865552170899        8.8645146643127237        8.3243333535262405     
   386.95707210976667        8.5988539630973531        8.5988539630982430     
   387.16129063053137        8.3289077214763250        8.8693858714192473     
   387.57093378861441        8.0547172001018623        9.1362832747344900     
   388.19602987965686        7.7762869253898446        9.3999161500026123     
   389.04706170101463        7.4935833430832037        9.6606694341380344     
   390.13501856388893        7.2065333776431890        9.9189422502614413     
   391.47145132393484        6.9150228743142010        10.175147167427721     
   393.06853024005073        6.6188949001200488        10.429709474223111     
   394.93910532897809        6.3179478800372628        10.683066439207353     
   397.09676869436930        6.0119335453368326        10.935666522072040     
   399.55591805727732        5.7005546728474492        11.187968488138880     
   402.33182038014564        5.3834625970359760        11.440440364849463     
   405.44067403195794        5.0602544818328337        11.693558161465525     
   408.89966735417721        4.7304703467511660        11.947804251376011     
   412.72703071181400        4.3935898530184279        12.203665289038360     
   416.94207809546742        4.0490288714567724        12.461629499233315     
   421.56523300741208        3.6961358764658128        12.722183133236426     
   426.61803162807678        3.3341882420189637        12.985805832599189     
   432.12309400666550        2.9623885591869441        13.252964574006473     
   438.10405111373416        2.5798611544277268        13.524105785299414     
   444.58541186896514        2.1856490690286048        13.799645120135777     
   451.59234952163553        1.7787118694314046        14.079954253804564     
   459.15038080092359        1.3579248042193388        14.365343912792209     
   467.28490385083921       0.92208001666532236        14.656042174542264     
   476.02055193417800       0.46989077407531887        14.952166873043154     
   485.38030914308655       -1.5774078555629146E-012   15.253690727335668     
   495.38432201502405      -0.48900519440205997        15.560397589896821     
   506.04832754974166      -0.99857077867639810        15.871828021418278     
   517.38160488559095       -1.5301420708765727        16.187212292776543     
   529.38434720183807       -2.0851155314258398        16.505388984506641     
   542.04434642317381       -2.6647719189732553        16.824707739668515     
   555.33289274488368       -3.2701860531258302        17.142915634870736     
   569.19982405460701       -3.9021081494111027        17.457028352226221     
   583.56773128068289       -4.5608120703054906        17.763190223491321     
   598.32545269060563       -5.2459073906957769        18.056531673882553     
   613.32119287617718       -5.9561156042996375        18.331038940857876     
   628.35589558325125       -6.6890169082435209        18.579459210282995     
   643.17788173733095       -7.4407834981457865        18.793273859906375     
   657.48019680154221       -8.2059283285442763        18.962781520790227     
   670.90249694474312       -8.9771137046755207        19.077337705160929     
   683.03946652003708       -9.7450785901097188        19.125793617916298     
   693.45746013806706       -10.498751174876555        19.097157491978439     
   701.72006553953133       -11.225606025424256        18.981463169210222     
   707.42149867018384       -11.912295667438277        18.770774405273862     
   710.22440309589206       -12.545532954437087        18.460191155595389     
   709.89638860183550       -13.113132058641796        18.048677886260016     
   706.33845876644125       -13.605053553290654        17.539529353916819     
   699.59916932139913       -14.014269736595383        16.940342054168255     
   689.87109182041411       -14.337289163616541        16.262462348010263     
   677.47015774543956       -14.574252551765946        15.520002621203565     
   662.80229670666336       -14.728610914676832        14.728610914672256     
   646.32409758154120       -14.806484940971552        13.904214851013325     
   628.50440659039941       -14.815853815191348        13.061932185203583     
   609.79216851457761       -14.765723530822140        12.215268839030790     
   590.59334468772454       -14.665390475086646        11.375642913063022     
   571.25736419396549       -14.523866189543361        10.552206457758748     
   552.07188293990691       -14.349482285145177        9.7518980908664243     
   533.26379504470390       -14.149661007055560        8.9796479287820574     
   515.00430931199867       -13.930819153184583        8.2386634808343100     
   497.41619923437577       -13.698368020946125        7.5307415469607024     
   480.58180744999356       -13.456775071350265        6.8565693669721890     
   464.55086470566653       -13.209659775563098        6.2159940573433730     
   449.34758218625092       -12.959903688880750        5.6082511259808960     
   434.97676774979385       -12.709761562289284        5.0321505876483315     
   421.42890822443309       -12.460965617459438        4.4862236712473456     
   408.68427248466577       -12.214818924324714        3.9688352544290249     
   396.71614668847485       -11.972276352291308        3.4782678165546019     
   385.49333364292283       -11.734013120225207        3.0127825012537945     
   374.98204762008606       -11.500481834745141        2.5706622561408090     
   365.14732421118998       -11.271959314909976        2.1502412383094112     
   355.95404840348380       -11.048584627179668        1.7499238925519005     
   347.36768675117645       -10.830389717379878        1.3681964013235355     
   339.35479328618777       -10.617323904876173        1.0036326016537405     
   331.88334457962708       -10.409273347165190       0.65489596898706415     
   324.92294738715935       -10.206076419334156       0.32073887281067576     
   318.44495251586858       -10.007535797926669       -2.0697896482438927E-012
   312.42250070127409       -9.8134279001146698      -0.30839939598830013     
   306.83052008887739       -9.6235102092976827      -0.60545994263210268     
   301.64569008294461       -9.4375269172033978      -0.89210895118136058     
   296.84638259111608       -9.2552132287393345       -1.1692053345748596     
   292.41258882934449       -9.0762986071487344       -1.4375444751136441     
   288.32583766900478       -8.9005091812268233       -1.6978629312610636     
   284.56910985420842       -8.7275694913355988       -1.9508429126407374     
   281.12675117100576       -8.5572037148172839       -2.1971164807437167     
   277.98438671589435       -8.3891364825085635       -2.4372694529603116     
   275.12883771462867       -8.2230933750203281       -2.6718450015084989     
   272.54804182636553       -8.0588011691287900       -2.9013469482824394     
   270.23097748854389       -7.8959878900907601       -3.1262427628166720     
   268.16759258082567       -7.7343827141932975       -3.3469662743641151     
   266.34873748613643       -7.5737157567689488       -3.5639201111920658     
   264.76610248373390       -7.4137177737666704       -3.7774778811055203     
   263.41215930842151       -7.2541197993791862       -3.9879861072746583     
   262.28010664023236       -7.0946527378834565       -4.1957659329383379     
   261.36381924162197       -6.9350469245100381       -4.4011146076706389     
   260.65780042799207       -6.7750316676287987       -4.6043067667719120     
   260.15713753739448       -6.6143347826736392       -4.8055955140800064     
   259.85746005290372       -6.4526821269106120       -5.0052133171631903     
   259.75490002369622       -6.2897971432921738       -5.2033727225061108     
   259.84605442633330       -6.1254004211658160       -5.4002668969718641     
   260.12794910465402       -5.9592092814649469       -5.5960700005462094     
   260.59800392400041       -5.7909373941640592       -5.7909373941670568     
   261.25399877251573       -5.6202944361992406       -5.9850056853345253     
   262.09404003854092       -5.4469857987171464       -6.1783926132039957     
   263.11652718847972       -5.2707123534043836       -6.3711967740080837     
   264.32011906391364       -5.0911702887522852       -6.5634971869580063     
   265.70369951043307       -4.9080510284187593       -6.7553527002693521     
   267.26634194399315       -4.7210412453477248       -6.9468012366762908     
   269.00727245425082       -4.5298229869856987       -7.1378588777838248     
   270.92583103910653       -4.3340739287755294       -7.3285187869093731     
   273.02143056169189       -4.1334677750862872       -7.5187499707407852     
   275.29351302170789       -3.9276748288205354       -7.7084958812566544     
   277.74150273905673       -3.7163627530799341       -7.8976728609929374     
   280.36475606122372       -3.4991975504023323       -8.0861684369854068     
   283.16250722934603       -3.2758447871252621       -8.2738394716641874     
   286.13381007426869       -3.0459710922711336       -8.4605101827268197     
   289.27747526647192       -2.8092459618506798       -8.6459700486724085     
   292.59200291631129       -2.5653439004686205       -8.8299716223432831     
   296.07551041763281       -2.3139469323791979       -9.0122282815817272     
   299.72565555284353       -2.0547475134250335       -9.1924119540382954     
   303.53955503533109       -1.7874518733080287       -9.3701508623004859     
   307.51369885990573       -1.5117838140490187       -9.5450273458317412     
   311.64386106729489       -1.2274889849265753       -9.7165758276346281     
   315.92500780718245      -0.93433964625116517       -9.8842810058989272     
   320.35120390665372      -0.63213992363494098       -10.047576363862314     
   324.91551951556829      -0.32073154058768699       -10.205843104249180     
   329.60993880232422        3.2181377537154475E-012  -10.358409627335213     
   334.42527310341626       0.33011883586217861       -10.504551683089254     
   339.35108137359919       0.66963184171322143       -10.643493336937450     
   344.37560121963025        1.0184815050145533       -10.774408894238313     
   349.48569420217598        1.3765387149149220       -10.896425929132711     
   354.66680942321119        1.7435956312072682       -11.008629557492846     
   359.90296963965778        2.1193588335422779       -11.110068079663012     
   365.17678421266919        2.5034429833495655       -11.199760095083027     
   370.46949306832778        2.8953652594177939       -11.276703156514284     
   375.76104546362336        3.2945408500846578       -11.339883985736483     
   381.03021668233100        3.7002797973604800       -11.388290215265702     
   386.25476480268941        4.1117854878374258       -11.420923552833408     
   391.41162837622130        4.5281550689193102       -11.436814189188370     
   396.47716425449619        4.9483820343268459       -11.435036188640018     
   401.42742294939279        5.3713611685811919       -11.414723520321061     
   406.23845689787339        5.7958959662547604       -11.375086312176908     
   410.88665494287335        6.2207085499741215       -11.315426845697317     
   415.34909438354504        6.6444520052069125       -11.235154764091570     
   419.60390025331719        7.0657249354529617       -11.133800946158589     
   423.63060021727296        7.4830879259689604       -11.011029507406967     
   427.41046278847193        7.8950814960907962       -10.866647431857844     
   430.92680655748728        8.3002450284294902       -10.700611412556098     
   434.16526886871816        8.6971360959320183       -10.513031583226303     
   437.11402385404244        9.0843495716447240       -10.304171951827216     
   439.76394187226049        9.4605359051344813       -10.074447490470167     
   442.10868505970387        9.8244179849711450       -9.8244179849640290     
   444.14473667957571        10.174806076187695       -9.5547788901048811     