 VARIABLES = "x_1", "x_2", "x_3"
 ZONE F = POINT , I =         201  , J =         101
   1176.7134638042253        0.0000000000000000        0.0000000000000000     
   1176.7134638042253        0.0000000000000000        0.0000000000000000     
   1176.7134638042253        0.0000000000000000        0.0000000000000000     
   1176.7134638042253        0.0000000000000000        0.0000000000000000     
   1176.7134638042253        0.0000000000000000        0.0000000000000000     
   1176.7134638042253        0.0000000000000000        0.0000000000000000     
   1176.7134638042253        0.0000000000000000        0.0000000000000000     
   1176.7134638042253        0.0000000000000000        0.0000000000000000     
   1176.7134638042253        0.0000000000000000        0.0000000000000000     
   1176.7134638042253        0.0000000000000000        0.0000000000000000     
   1176.7134638042253        0.0000000000000000        0.0000000000000000     
   1176.7134638042253        0.0000000000000000        0.0000000000000000     
   1176.7134638042253        0.0000000000000000        0.0000000000000000     
   1176.7134638042253        0.0000000000000000        0.0000000000000000     
   1176.7134638042253        0.0000000000000000        0.0000000000000000     
   1176.7134638042253        0.0000000000000000        0.0000000000000000     
   1176.7134638042253        0.0000000000000000        0.0000000000000000     
   1176.7134638042253        0.0000000000000000        0.0000000000000000     
   1176.7134638042253        0.0000000000000000        0.0000000000000000     
   1176.7134638042253        0.0000000000000000        0.0000000000000000     
   1176.7134638042253        0.0000000000000000        0.0000000000000000     
   1176.7134638042253        0.0000000000000000        0.0000000000000000     
   1176.7134638042253        0.0000000000000000        0.0000000000000000     
   1176.7134638042253        0.0000000000000000        0.0000000000000000     
   1176.7134638042253        0.0000000000000000        0.0000000000000000     
   1176.7134638042253        0.0000000000000000        0.0000000000000000     
   1176.7134638042253        0.0000000000000000        0.0000000000000000     
   1176.7134638042253        0.0000000000000000        0.0000000000000000     
   1176.7134638042253        0.0000000000000000        0.0000000000000000     
   1176.7134638042253        0.0000000000000000        0.0000000000000000     
   1176.7134638042253        0.0000000000000000        0.0000000000000000     
   1176.7134638042253        0.0000000000000000        0.0000000000000000     
   1176.7134638042253        0.0000000000000000        0.0000000000000000     
   1176.7134638042253        0.0000000000000000        0.0000000000000000     
   1176.7134638042253        0.0000000000000000        0.0000000000000000     
   1176.7134638042253        0.0000000000000000        0.0000000000000000     
   1176.7134638042253        0.0000000000000000        0.0000000000000000     
   1176.7134638042253        0.0000000000000000        0.0000000000000000     
   1176.7134638042253        0.0000000000000000        0.0000000000000000     
   1176.7134638042253        0.0000000000000000        0.0000000000000000     
   1176.7134638042253        0.0000000000000000        0.0000000000000000     
   1176.7134638042253        0.0000000000000000        0.0000000000000000     
   1176.7134638042253        0.0000000000000000        0.0000000000000000     
   1176.7134638042253        0.0000000000000000        0.0000000000000000     
   1176.7134638042253        0.0000000000000000        0.0000000000000000     
   1176.7134638042253        0.0000000000000000        0.0000000000000000     
   1176.7134638042253        0.0000000000000000        0.0000000000000000     
   1176.7134638042253        0.0000000000000000        0.0000000000000000     
   1176.7134638042253        0.0000000000000000        0.0000000000000000     
   1176.7134638042253        0.0000000000000000        0.0000000000000000     
   1176.7134638042253       -0.0000000000000000        0.0000000000000000     
   1176.7134638042253       -0.0000000000000000        0.0000000000000000     
   1176.7134638042253       -0.0000000000000000        0.0000000000000000     
   1176.7134638042253       -0.0000000000000000        0.0000000000000000     
   1176.7134638042253       -0.0000000000000000        0.0000000000000000     
   1176.7134638042253       -0.0000000000000000        0.0000000000000000     
   1176.7134638042253       -0.0000000000000000        0.0000000000000000     
   1176.7134638042253       -0.0000000000000000        0.0000000000000000     
   1176.7134638042253       -0.0000000000000000        0.0000000000000000     
   1176.7134638042253       -0.0000000000000000        0.0000000000000000     
   1176.7134638042253       -0.0000000000000000        0.0000000000000000     
   1176.7134638042253       -0.0000000000000000        0.0000000000000000     
   1176.7134638042253       -0.0000000000000000        0.0000000000000000     
   1176.7134638042253       -0.0000000000000000        0.0000000000000000     
   1176.7134638042253       -0.0000000000000000        0.0000000000000000     
   1176.7134638042253       -0.0000000000000000        0.0000000000000000     
   1176.7134638042253       -0.0000000000000000        0.0000000000000000     
   1176.7134638042253       -0.0000000000000000        0.0000000000000000     
   1176.7134638042253       -0.0000000000000000        0.0000000000000000     
   1176.7134638042253       -0.0000000000000000        0.0000000000000000     
   1176.7134638042253       -0.0000000000000000        0.0000000000000000     
   1176.7134638042253       -0.0000000000000000        0.0000000000000000     
   1176.7134638042253       -0.0000000000000000        0.0000000000000000     
   1176.7134638042253       -0.0000000000000000        0.0000000000000000     
   1176.7134638042253       -0.0000000000000000        0.0000000000000000     
   1176.7134638042253       -0.0000000000000000        0.0000000000000000     
   1176.7134638042253       -0.0000000000000000        0.0000000000000000     
   1176.7134638042253       -0.0000000000000000        0.0000000000000000     
   1176.7134638042253       -0.0000000000000000        0.0000000000000000     
   1176.7134638042253       -0.0000000000000000        0.0000000000000000     
   1176.7134638042253       -0.0000000000000000        0.0000000000000000     
   1176.7134638042253       -0.0000000000000000        0.0000000000000000     
   1176.7134638042253       -0.0000000000000000        0.0000000000000000     
   1176.7134638042253       -0.0000000000000000        0.0000000000000000     
   1176.7134638042253       -0.0000000000000000        0.0000000000000000     
   1176.7134638042253       -0.0000000000000000        0.0000000000000000     
   1176.7134638042253       -0.0000000000000000        0.0000000000000000     
   1176.7134638042253       -0.0000000000000000        0.0000000000000000     
   1176.7134638042253       -0.0000000000000000        0.0000000000000000     
   1176.7134638042253       -0.0000000000000000        0.0000000000000000     
   1176.7134638042253       -0.0000000000000000        0.0000000000000000     
   1176.7134638042253       -0.0000000000000000        0.0000000000000000     
   1176.7134638042253       -0.0000000000000000        0.0000000000000000     
   1176.7134638042253       -0.0000000000000000        0.0000000000000000     
   1176.7134638042253       -0.0000000000000000        0.0000000000000000     
   1176.7134638042253       -0.0000000000000000        0.0000000000000000     
   1176.7134638042253       -0.0000000000000000        0.0000000000000000     
   1176.7134638042253       -0.0000000000000000        0.0000000000000000     
   1176.7134638042253       -0.0000000000000000        0.0000000000000000     
   1176.7134638042253       -0.0000000000000000        0.0000000000000000     
   1176.7134638042253       -0.0000000000000000       -0.0000000000000000     
   1176.7134638042253       -0.0000000000000000       -0.0000000000000000     
   1176.7134638042253       -0.0000000000000000       -0.0000000000000000     
   1176.7134638042253       -0.0000000000000000       -0.0000000000000000     
   1176.7134638042253       -0.0000000000000000       -0.0000000000000000     
   1176.7134638042253       -0.0000000000000000       -0.0000000000000000     
   1176.7134638042253       -0.0000000000000000       -0.0000000000000000     
   1176.7134638042253       -0.0000000000000000       -0.0000000000000000     
   1176.7134638042253       -0.0000000000000000       -0.0000000000000000     
   1176.7134638042253       -0.0000000000000000       -0.0000000000000000     
   1176.7134638042253       -0.0000000000000000       -0.0000000000000000     
   1176.7134638042253       -0.0000000000000000       -0.0000000000000000     
   1176.7134638042253       -0.0000000000000000       -0.0000000000000000     
   1176.7134638042253       -0.0000000000000000       -0.0000000000000000     
   1176.7134638042253       -0.0000000000000000       -0.0000000000000000     
   1176.7134638042253       -0.0000000000000000       -0.0000000000000000     
   1176.7134638042253       -0.0000000000000000       -0.0000000000000000     
   1176.7134638042253       -0.0000000000000000       -0.0000000000000000     
   1176.7134638042253       -0.0000000000000000       -0.0000000000000000     
   1176.7134638042253       -0.0000000000000000       -0.0000000000000000     
   1176.7134638042253       -0.0000000000000000       -0.0000000000000000     
   1176.7134638042253       -0.0000000000000000       -0.0000000000000000     
   1176.7134638042253       -0.0000000000000000       -0.0000000000000000     
   1176.7134638042253       -0.0000000000000000       -0.0000000000000000     
   1176.7134638042253       -0.0000000000000000       -0.0000000000000000     
   1176.7134638042253       -0.0000000000000000       -0.0000000000000000     
   1176.7134638042253       -0.0000000000000000       -0.0000000000000000     
   1176.7134638042253       -0.0000000000000000       -0.0000000000000000     
   1176.7134638042253       -0.0000000000000000       -0.0000000000000000     
   1176.7134638042253       -0.0000000000000000       -0.0000000000000000     
   1176.7134638042253       -0.0000000000000000       -0.0000000000000000     
   1176.7134638042253       -0.0000000000000000       -0.0000000000000000     
   1176.7134638042253       -0.0000000000000000       -0.0000000000000000     
   1176.7134638042253       -0.0000000000000000       -0.0000000000000000     
   1176.7134638042253       -0.0000000000000000       -0.0000000000000000     
   1176.7134638042253       -0.0000000000000000       -0.0000000000000000     
   1176.7134638042253       -0.0000000000000000       -0.0000000000000000     
   1176.7134638042253       -0.0000000000000000       -0.0000000000000000     
   1176.7134638042253       -0.0000000000000000       -0.0000000000000000     
   1176.7134638042253       -0.0000000000000000       -0.0000000000000000     
   1176.7134638042253       -0.0000000000000000       -0.0000000000000000     
   1176.7134638042253       -0.0000000000000000       -0.0000000000000000     
   1176.7134638042253       -0.0000000000000000       -0.0000000000000000     
   1176.7134638042253       -0.0000000000000000       -0.0000000000000000     
   1176.7134638042253       -0.0000000000000000       -0.0000000000000000     
   1176.7134638042253       -0.0000000000000000       -0.0000000000000000     
   1176.7134638042253       -0.0000000000000000       -0.0000000000000000     
   1176.7134638042253       -0.0000000000000000       -0.0000000000000000     
   1176.7134638042253       -0.0000000000000000       -0.0000000000000000     
   1176.7134638042253       -0.0000000000000000       -0.0000000000000000     
   1176.7134638042253        0.0000000000000000       -0.0000000000000000     
   1176.7134638042253        0.0000000000000000       -0.0000000000000000     
   1176.7134638042253        0.0000000000000000       -0.0000000000000000     
   1176.7134638042253        0.0000000000000000       -0.0000000000000000     
   1176.7134638042253        0.0000000000000000       -0.0000000000000000     
   1176.7134638042253        0.0000000000000000       -0.0000000000000000     
   1176.7134638042253        0.0000000000000000       -0.0000000000000000     
   1176.7134638042253        0.0000000000000000       -0.0000000000000000     
   1176.7134638042253        0.0000000000000000       -0.0000000000000000     
   1176.7134638042253        0.0000000000000000       -0.0000000000000000     
   1176.7134638042253        0.0000000000000000       -0.0000000000000000     
   1176.7134638042253        0.0000000000000000       -0.0000000000000000     
   1176.7134638042253        0.0000000000000000       -0.0000000000000000     
   1176.7134638042253        0.0000000000000000       -0.0000000000000000     
   1176.7134638042253        0.0000000000000000       -0.0000000000000000     
   1176.7134638042253        0.0000000000000000       -0.0000000000000000     
   1176.7134638042253        0.0000000000000000       -0.0000000000000000     
   1176.7134638042253        0.0000000000000000       -0.0000000000000000     
   1176.7134638042253        0.0000000000000000       -0.0000000000000000     
   1176.7134638042253        0.0000000000000000       -0.0000000000000000     
   1176.7134638042253        0.0000000000000000       -0.0000000000000000     
   1176.7134638042253        0.0000000000000000       -0.0000000000000000     
   1176.7134638042253        0.0000000000000000       -0.0000000000000000     
   1176.7134638042253        0.0000000000000000       -0.0000000000000000     
   1176.7134638042253        0.0000000000000000       -0.0000000000000000     
   1176.7134638042253        0.0000000000000000       -0.0000000000000000     
   1176.7134638042253        0.0000000000000000       -0.0000000000000000     
   1176.7134638042253        0.0000000000000000       -0.0000000000000000     
   1176.7134638042253        0.0000000000000000       -0.0000000000000000     
   1176.7134638042253        0.0000000000000000       -0.0000000000000000     
   1176.7134638042253        0.0000000000000000       -0.0000000000000000     
   1176.7134638042253        0.0000000000000000       -0.0000000000000000     
   1176.7134638042253        0.0000000000000000       -0.0000000000000000     
   1176.7134638042253        0.0000000000000000       -0.0000000000000000     
   1176.7134638042253        0.0000000000000000       -0.0000000000000000     
   1176.7134638042253        0.0000000000000000       -0.0000000000000000     
   1176.7134638042253        0.0000000000000000       -0.0000000000000000     
   1176.7134638042253        0.0000000000000000       -0.0000000000000000     
   1176.7134638042253        0.0000000000000000       -0.0000000000000000     
   1176.7134638042253        0.0000000000000000       -0.0000000000000000     
   1176.7134638042253        0.0000000000000000       -0.0000000000000000     
   1176.7134638042253        0.0000000000000000       -0.0000000000000000     
   1176.7134638042253        0.0000000000000000       -0.0000000000000000     
   1176.7134638042253        0.0000000000000000       -0.0000000000000000     
   1176.7134638042253        0.0000000000000000       -0.0000000000000000     
   1176.7134638042253        0.0000000000000000       -0.0000000000000000     
   1176.7134638042253        0.0000000000000000       -0.0000000000000000     
   1176.7134638042253        0.0000000000000000       -0.0000000000000000     
   1176.7134638042253        0.0000000000000000       -0.0000000000000000     
   1176.7134638042253        0.0000000000000000       -0.0000000000000000     
   1176.7134638042253        0.0000000000000000        0.0000000000000000     
   1218.1324063031059        38.281353076511436        0.0000000000000000     
   1218.7095085959932        38.280590760735379        1.2030160295435992     
   1219.2441281532654        38.240681896672548        2.4058997770819803     
   1219.7365166505954        38.161646548375437        3.6073376824485037     
   1220.1869595618905        38.043550981142076        4.8060181493308267     
   1220.5957719678895        37.886507381081650        6.0006332674044316     
   1220.9632943865654        37.690673508436781        7.1898805002238619     
   1221.2898886523037        37.456252288731534        8.3724643366090223     
   1221.5759338702171        37.183491345822084        9.5470979037188002     
   1221.8218224712036        36.872682480885629        10.712504540446448     
   1222.0279563924009        36.524161101293231        11.867419330194764     
   1222.1947434066226        36.138305603178544        13.010590592489718     
   1222.3225936231206        35.715536711339624        14.140781333263639     
   1222.4119161806532        35.256316779898675        15.256770653979618     
   1222.4631161523814        34.761149056901296        16.357355120073926     
   1222.4765916805113        34.230576915763834        17.441350089459522     
   1222.4527313569413        33.665183056183416        18.507591002059506     
   1222.3919118644033        33.065588676812503        19.554934631521501     
   1222.2944958907788        32.432452621675282        20.582260300403124     
   1222.1608303273811        31.766470501971853        21.588471060212019     
   1221.9912447600736        31.068373794582680        22.572494837733572     
   1221.7860502601472        30.338928918256141        23.533285549083999     
   1221.5455384799025        29.578936288141616        24.469824182889063     
   1221.2699810558940        28.789229349022552        25.381119853908711     
   1220.9596293208301        27.970673587315545        26.266210828310292     
   1220.6147143231269        27.124165521634485        27.124165521637295     
   1220.2354471512033        26.250631671479670        27.954083470333259     
   1219.8220195576573        25.351027503401205        28.755096277462041     
   1219.3746048766193        24.426336353810740        29.526368533022048     
   1218.8933592257392        23.477568327474430        30.267098708986907     
   1218.3784229825151        22.505759170618770        30.976520028922035     
   1217.8299225229791        21.511969117518653        31.653901311732206     
   1217.2479722091405        20.497281709416328        32.298547788792078     
   1216.6326766100594        19.462802584640865        32.909801893406666     
   1215.9841329399983        18.409658238860803        33.487044021245630     
   1215.3024336957653        17.338994754506778        34.029693260099783     
   1214.5876694741355        16.251976498545368        34.537208087024212     
   1213.8399319491541        15.149784787969283        35.009087030666223     
   1213.0593169881258        14.033616522588572        35.444869296330943     
   1212.2459278842643        12.904682784961960        35.844135351117998     
   1211.3998786832592        11.764207407592595        36.206507466273095     
   1210.5212975804479        10.613425507824966        36.531650213742061     
   1209.6103303648724        9.4535819912160637        36.819270913795627     
   1208.6671438862152        8.2859300245092999        37.069120030512671     
   1207.6919295205187        7.1117294797098500        37.280991511871996     
   1206.6849066106063        5.9322453511400219        37.454723071206892     
   1205.6463258573544        4.7487461477380446        37.590196406827779     
   1204.5764726383088        3.5625022632482746        37.687337356712554     
   1203.4756702306533        2.3747843273293836        37.746115985305224     
   1202.3442829162213        1.1868615409753549        37.766546599648962     
   1201.1827189470546       -3.9036504389281783E-012   37.748687692308515     
   1199.9914333509835       -1.1845389893643175        37.692641808807949     
   1198.7709305578139       -2.3655005982883774        37.598555337620319     
   1197.5217668279406       -3.5416381620662234        37.466618221092816     
   1196.2445524665686       -4.7117148606975938        37.297063586071260     
   1194.9399538081991       -5.8745053883125466        37.090167293397712     
   1193.6086949576127       -7.0287976061473270        36.846247405889926     
   1192.2515592752343       -8.1733941736947227        36.565663574866008     
   1190.8693905965088       -9.3071141525773520        36.248816345749162     
   1189.4630941767080       -10.428794577669537        35.896146383767729     
   1188.0336373544242       -11.537291990019531        35.508133621252007     
   1186.5820499288789       -12.631483926199497        35.085296328514652     
   1185.1094242480424       -13.710270358835428        34.628190110780551     
   1183.6169150064559       -14.772575083242227        34.137406834101178     
   1182.1057387534775       -15.817347045309090        33.613573483638724     
   1180.5771731145032       -16.843561606045068        33.057350958136269     
   1179.0325557294964       -17.850221738501784        32.469432804793939     
   1177.4732829148204       -18.836359153135916        31.850543899143521     
   1175.9008080560311       -19.801035348055954        31.201439074853084     
   1174.3166397407888       -20.743342581010651        30.522901708693475     
   1172.7223396424670       -21.662404760416731        29.815742266157198     
   1171.1195201663634       -22.557378253186553        29.080796813436692     
   1169.5098418715716       -23.427452607596869        28.318925501638169     
   1167.8950106826412       -24.271851189933525        27.531011029231063     
   1166.2767749060581       -25.089831734148284        26.717957088808323     
   1164.6569220673416       -25.880686804268464        25.880686804260421     
   1163.0372755851768       -26.643744169801650        25.020141164446247     
   1161.4196912994912       -27.378367094874040        24.137277459377749     
   1159.8060538706973       -28.083954542323919        23.233067724823218     
   1158.1982730675225       -28.759941294440541        22.308497201079682     
   1156.5982799608946       -29.405797992486505        21.364562811468677     
   1155.0080230412698       -30.021031097566887        20.402271665875794     
   1153.4294642765576       -30.605182775805773        19.422639594384840     
   1151.8645751274976       -31.157830711159669        18.426689715756417     
   1150.3153325368551       -31.678587849532761        17.415451045170830     
   1148.7837149082895       -32.167102078160916        16.389957145300997     
   1147.2716980900893       -32.623055844497635        15.351244824406088     
   1145.7812513782453       -33.046165719063431        14.300352884743885     
   1144.3143335525449       -33.436181906912218        13.238320924195097     
   1142.8728889585202       -33.792887712521171        12.166188193577973     
   1141.4588436471663       -34.116098963026175        11.084992511711206     
   1140.0741015834246       -34.405663394803092        9.9957692398614704     
   1138.7205409334542       -34.661460008436656        8.8995503167906733     
   1137.4000104397383       -34.883398397124957        7.7973633552023385     
   1136.1143258920872       -35.071418053539531        6.6902307999780213     
   1134.8652667016286       -35.225487660100598        5.5791691481967929     
   1133.6545725839121       -35.345604367536637        4.4651882305458166     
   1132.4839403563126       -35.431793066477461        3.3492905533600630     
   1131.3550208540294       -35.484105656684648        2.2324707001764432     
   1130.2694159680839       -35.502620318352825        1.1157147913533625     
   1129.2286758079333       -35.487440789723578       -7.3396227675203923E-012
   1128.2342959905156       -35.438695655041869       -1.1137058778921074     
   1127.2877150568590       -35.356537646656349       -2.2244448012880116     
   1126.3903120167133       -35.241142964820099       -3.3312688127510293     
   1125.5434040210905       -35.092710618492333       -4.4332403204309418     
   1124.7482441620648       -34.911461790172673       -5.5294323365557165     
   1124.0060193987447       -34.697639227523872       -6.6189286755572221     
   1123.3178486079248       -34.451506664254623       -7.7008241151765437     
   1122.6847807576275       -34.173348272445828       -8.7742245240200791     
   1122.1077932014780       -33.863468148211133       -9.8382469591494370     
   1121.5877900916912       -33.522189832288497       -10.892019737377435     
   1121.1256009083265       -33.149855866864733       -11.934682484011244     
   1120.7219791024090       -32.746827389640487       -12.965386162831818     
   1120.3776008505447       -32.313483765850833       -13.983293091127498     
   1120.0930639187040       -31.850222258666630       -14.987576943609092     
   1119.8688866329821       -31.357457738115453       -15.977422749025227     
   1119.7055069553271       -30.835622428379160       -16.952026883270801     
   1119.6032816624233       -30.285165693047539       -17.910597062738031     
   1119.5624856262073       -29.706553857636607       -18.852352341600913     
   1119.5833111947773       -29.100270068413984       -19.776523116648804     
   1119.6658676727966       -28.466814186315133       -20.682351143195078     
   1119.8101809008551       -27.806702714482046       -21.569089565482539     
   1120.0161929336307       -27.120468757710725       -22.436002964888619     
   1120.2837618170963       -26.408662011857121       -23.282367429100653     
   1120.6126614654336       -25.671848781021552       -24.107470645286234     
   1121.0025816387167       -24.910612020110829       -24.910612020123722     
   1121.4531280228707       -24.125551400165776       -25.691102829386317     
   1121.9638224137873       -23.317283393638544       -26.448266399587425     
   1122.5341030079089       -22.486441376612028       -27.181438323997405     
   1123.1633248019507       -21.633675744770819       -27.889966715130964     
   1123.8507601047900       -20.759654039762186       -28.573212495581195     
   1124.5955991648814       -19.865061082425864       -29.230549728840991     
   1125.3969509168414       -18.950599109225564       -29.861365991504030     
   1126.2538438510858       -18.016987908080402       -30.465062787978287     
   1127.1652270106099       -17.064964949677847       -31.041056008572461     
   1128.1299711191450       -16.095285510244874       -31.588776431533251     
   1129.1468698450037       -15.108722781669716       -32.107670269316181     
   1130.2146412049560       -14.106067964796569       -32.597199759068786     
   1131.3319291124305       -13.088130341668473       -33.056843796989561     
   1132.4973050742162       -12.055737322463438       -33.486098615903245     
   1133.7092700396443       -11.009734462863960       -33.884478505060798     
   1134.9662564059597       -9.9509854476149773       -34.251516570834916     
   1136.2666301832344       -8.8803720360681275       -34.586765536637401     
   1137.6086933217252       -7.7987939655749647       -34.889798580037841     
   1138.9906862040752       -6.7071688086875536       -35.160210204713152     
   1140.4107903041181       -5.6064317802441845       -35.397617144507755     
   1141.8671310133723       -4.4975354905706411       -35.601659296536646     
   1143.3577806355188       -3.3814496412057089       -35.772000679920474     
   1144.8807615482954       -2.2591606597711951       -35.908330416405263     
   1146.4340495313029       -1.1316712708477972       -36.010363728793479     
   1148.0155772572093        1.1208619146768298E-011  -36.077842952798775     
   1149.6232379427408        1.1348193916923472       -36.110538557639210     
   1151.2548891547328        2.2717385445939238       -36.108250170404055     
   1152.9083567652899        3.4096952112275103       -36.070807598972081     
   1154.5814390488915        4.5476140418313200       -35.998071848027500     
   1156.2719109129846        5.6844074460597600       -35.889936122515472     
   1157.9775282523356        6.8189765313751236       -35.746326812708041     
   1159.6960324160777        7.9502121183026651       -35.567204454913131     
   1161.4251547751239        9.0769958322306916       -35.352564661760603     
   1163.1626213763004        10.198201270937096       -35.102439015939147     
   1164.9061576683223        11.312695246515338       -34.816895921241773     
   1166.6534932835170        12.419339099851545       -34.496041404805780     
   1168.4023668580642        13.516990085282504       -34.140019864507913     
   1170.1505308724438        14.604502822539436       -33.749014755598196     
   1171.8957564928148        15.680730812563702       -33.323249210827761     
   1173.6358383931922        16.744528013272724       -32.862986588546576     
   1175.3685995375145        17.794750470858393       -32.368530943516660     
   1177.0918959001212        18.830258001728335       -31.840227415504277     
   1178.8036211026772        19.849915919749812       -31.278462531079398     
   1180.5017109452901        20.852596803039479       -30.683664414459837     
   1182.1841478094357        21.837182294157639       -30.056302903689584     
   1183.8489649103615        22.802564927224520       -29.396889568930980     
   1185.4942503768732        23.747649975176177       -28.705977630177120     
   1187.1181511368377        24.671357310129629       -27.984161772246608     
   1188.7188765873466        25.572623269627574       -27.232077855506674     
   1190.2947020293232        26.450402521392586       -26.450402521373427     
   1191.8439718473342        27.303669919134247       -25.639852692257154     