 VARIABLES = "x_1", "x_2", "x_3"
 ZONE F = POINT , I =         201  , J =         101
   178.84643621236773        0.0000000000000000        0.0000000000000000     
   178.84921360935772        0.0000000000000000        0.0000000000000000     
   178.85427920066408        0.0000000000000000        0.0000000000000000     
   178.86161357470661        0.0000000000000000        0.0000000000000000     
   178.87118861695964        0.0000000000000000        0.0000000000000000     
   178.88296760806068        0.0000000000000000        0.0000000000000000     
   178.89690535218838        0.0000000000000000        0.0000000000000000     
   178.91294833545467        0.0000000000000000        0.0000000000000000     
   178.93103491398657        0.0000000000000000        0.0000000000000000     
   178.95109553130601        0.0000000000000000        0.0000000000000000     
   178.97305296454218        0.0000000000000000        0.0000000000000000     
   178.99682259893538        0.0000000000000000        0.0000000000000000     
   179.02231273001109        0.0000000000000000        0.0000000000000000     
   179.04942489271568        0.0000000000000000        0.0000000000000000     
   179.07805421672029        0.0000000000000000        0.0000000000000000     
   179.10808980700187        0.0000000000000000        0.0000000000000000     
   179.13941514871522        0.0000000000000000        0.0000000000000000     
   179.17190853526691        0.0000000000000000        0.0000000000000000     
   179.20544351839942        0.0000000000000000        0.0000000000000000     
   179.23988937898179        0.0000000000000000        0.0000000000000000     
   179.27511161709782        0.0000000000000000        0.0000000000000000     
   179.31097245990688        0.0000000000000000        0.0000000000000000     
   179.34733138564351        0.0000000000000000        0.0000000000000000     
   179.38404566200697        0.0000000000000000        0.0000000000000000     
   179.42097089708511        0.0000000000000000        0.0000000000000000     
   179.45796160084527        0.0000000000000000        0.0000000000000000     
   179.49487175512471        0.0000000000000000        0.0000000000000000     
   179.53155538995290        0.0000000000000000        0.0000000000000000     
   179.56786716394600        0.0000000000000000        0.0000000000000000     
   179.60366294643231        0.0000000000000000        0.0000000000000000     
   179.63880039889006        0.0000000000000000        0.0000000000000000     
   179.67313955322012        0.0000000000000000        0.0000000000000000     
   179.70654338432024        0.0000000000000000        0.0000000000000000     
   179.73887837439415        0.0000000000000000        0.0000000000000000     
   179.77001506640320        0.0000000000000000        0.0000000000000000     
   179.79982860406250        0.0000000000000000        0.0000000000000000     
   179.82819925579247        0.0000000000000000        0.0000000000000000     
   179.85501292006364        0.0000000000000000        0.0000000000000000     
   179.88016160961701        0.0000000000000000        0.0000000000000000     
   179.90354391210644        0.0000000000000000        0.0000000000000000     
   179.92506542479052        0.0000000000000000        0.0000000000000000     
   179.94463916100150        0.0000000000000000        0.0000000000000000     
   179.96218592623785        0.0000000000000000        0.0000000000000000     
   179.97763466186328        0.0000000000000000        0.0000000000000000     
   179.99092275454686        0.0000000000000000        0.0000000000000000     
   180.00199630974998        0.0000000000000000        0.0000000000000000     
   180.01081038774774        0.0000000000000000        0.0000000000000000     
   180.01732920087093        0.0000000000000000        0.0000000000000000     
   180.02152627086303        0.0000000000000000        0.0000000000000000     
   180.02338454546623        0.0000000000000000        0.0000000000000000     
   180.02289647357642       -0.0000000000000000        0.0000000000000000     
   180.02006403854224       -0.0000000000000000        0.0000000000000000     
   180.01489874941751       -0.0000000000000000        0.0000000000000000     
   180.00742159021803       -0.0000000000000000        0.0000000000000000     
   179.99766292747029       -0.0000000000000000        0.0000000000000000     
   179.98566237657573       -0.0000000000000000        0.0000000000000000     
   179.97146862774528       -0.0000000000000000        0.0000000000000000     
   179.95513923248254       -0.0000000000000000        0.0000000000000000     
   179.93674035180939       -0.0000000000000000        0.0000000000000000     
   179.91634646763202       -0.0000000000000000        0.0000000000000000     
   179.89404005883625       -0.0000000000000000        0.0000000000000000     
   179.86991124388086       -0.0000000000000000        0.0000000000000000     
   179.84405739181841       -0.0000000000000000        0.0000000000000000     
   179.81658270381911       -0.0000000000000000        0.0000000000000000     
   179.78759776740492       -0.0000000000000000        0.0000000000000000     
   179.75721908570719       -0.0000000000000000        0.0000000000000000     
   179.72556858415894       -0.0000000000000000        0.0000000000000000     
   179.69277309710267       -0.0000000000000000        0.0000000000000000     
   179.65896383685299       -0.0000000000000000        0.0000000000000000     
   179.62427584778877       -0.0000000000000000        0.0000000000000000     
   179.58884744807042       -0.0000000000000000        0.0000000000000000     
   179.55281966157943       -0.0000000000000000        0.0000000000000000     
   179.51633564266416       -0.0000000000000000        0.0000000000000000     
   179.47954009624615       -0.0000000000000000        0.0000000000000000     
   179.44257869579792       -0.0000000000000000        0.0000000000000000     
   179.40559750164866       -0.0000000000000000        0.0000000000000000     
   179.36874238200284       -0.0000000000000000        0.0000000000000000     
   179.33215843898219       -0.0000000000000000        0.0000000000000000     
   179.29598944191261       -0.0000000000000000        0.0000000000000000     
   179.26037726998223       -0.0000000000000000        0.0000000000000000     
   179.22546136629842       -0.0000000000000000        0.0000000000000000     
   179.19137820526322       -0.0000000000000000        0.0000000000000000     
   179.15826077508001       -0.0000000000000000        0.0000000000000000     
   179.12623807709232       -0.0000000000000000        0.0000000000000000     
   179.09543464354272       -0.0000000000000000        0.0000000000000000     
   179.06597007522859       -0.0000000000000000        0.0000000000000000     
   179.03795860042081       -0.0000000000000000        0.0000000000000000     
   179.01150865629984       -0.0000000000000000        0.0000000000000000     
   178.98672249406036       -0.0000000000000000        0.0000000000000000     
   178.96369580872869       -0.0000000000000000        0.0000000000000000     
   178.94251739463945       -0.0000000000000000        0.0000000000000000     
   178.92326882742179       -0.0000000000000000        0.0000000000000000     
   178.90602417325240       -0.0000000000000000        0.0000000000000000     
   178.89084972604704       -0.0000000000000000        0.0000000000000000     
   178.87780377317836       -0.0000000000000000        0.0000000000000000     
   178.86693639022883       -0.0000000000000000        0.0000000000000000     
   178.85828926521296       -0.0000000000000000        0.0000000000000000     
   178.85189555263307       -0.0000000000000000        0.0000000000000000     
   178.84777975766190       -0.0000000000000000        0.0000000000000000     
   178.84595765068488       -0.0000000000000000        0.0000000000000000     
   178.84643621236776       -0.0000000000000000       -0.0000000000000000     
   178.84921360935775       -0.0000000000000000       -0.0000000000000000     
   178.85427920066417       -0.0000000000000000       -0.0000000000000000     
   178.86161357470664       -0.0000000000000000       -0.0000000000000000     
   178.87118861695970       -0.0000000000000000       -0.0000000000000000     
   178.88296760806074       -0.0000000000000000       -0.0000000000000000     
   178.89690535218844       -0.0000000000000000       -0.0000000000000000     
   178.91294833545473       -0.0000000000000000       -0.0000000000000000     
   178.93103491398668       -0.0000000000000000       -0.0000000000000000     
   178.95109553130615       -0.0000000000000000       -0.0000000000000000     
   178.97305296454232       -0.0000000000000000       -0.0000000000000000     
   178.99682259893558       -0.0000000000000000       -0.0000000000000000     
   179.02231273001124       -0.0000000000000000       -0.0000000000000000     
   179.04942489271588       -0.0000000000000000       -0.0000000000000000     
   179.07805421672049       -0.0000000000000000       -0.0000000000000000     
   179.10808980700210       -0.0000000000000000       -0.0000000000000000     
   179.13941514871541       -0.0000000000000000       -0.0000000000000000     
   179.17190853526714       -0.0000000000000000       -0.0000000000000000     
   179.20544351839962       -0.0000000000000000       -0.0000000000000000     
   179.23988937898207       -0.0000000000000000       -0.0000000000000000     
   179.27511161709802       -0.0000000000000000       -0.0000000000000000     
   179.31097245990713       -0.0000000000000000       -0.0000000000000000     
   179.34733138564368       -0.0000000000000000       -0.0000000000000000     
   179.38404566200725       -0.0000000000000000       -0.0000000000000000     
   179.42097089708540       -0.0000000000000000       -0.0000000000000000     
   179.45796160084549       -0.0000000000000000       -0.0000000000000000     
   179.49487175512496       -0.0000000000000000       -0.0000000000000000     
   179.53155538995310       -0.0000000000000000       -0.0000000000000000     
   179.56786716394629       -0.0000000000000000       -0.0000000000000000     
   179.60366294643254       -0.0000000000000000       -0.0000000000000000     
   179.63880039889025       -0.0000000000000000       -0.0000000000000000     
   179.67313955322032       -0.0000000000000000       -0.0000000000000000     
   179.70654338432047       -0.0000000000000000       -0.0000000000000000     
   179.73887837439437       -0.0000000000000000       -0.0000000000000000     
   179.77001506640340       -0.0000000000000000       -0.0000000000000000     
   179.79982860406264       -0.0000000000000000       -0.0000000000000000     
   179.82819925579267       -0.0000000000000000       -0.0000000000000000     
   179.85501292006376       -0.0000000000000000       -0.0000000000000000     
   179.88016160961718       -0.0000000000000000       -0.0000000000000000     
   179.90354391210656       -0.0000000000000000       -0.0000000000000000     
   179.92506542479069       -0.0000000000000000       -0.0000000000000000     
   179.94463916100162       -0.0000000000000000       -0.0000000000000000     
   179.96218592623799       -0.0000000000000000       -0.0000000000000000     
   179.97763466186339       -0.0000000000000000       -0.0000000000000000     
   179.99092275454694       -0.0000000000000000       -0.0000000000000000     
   180.00199630975007       -0.0000000000000000       -0.0000000000000000     
   180.01081038774780       -0.0000000000000000       -0.0000000000000000     
   180.01732920087093       -0.0000000000000000       -0.0000000000000000     
   180.02152627086303       -0.0000000000000000       -0.0000000000000000     
   180.02338454546620       -0.0000000000000000       -0.0000000000000000     
   180.02289647357642        0.0000000000000000       -0.0000000000000000     
   180.02006403854224        0.0000000000000000       -0.0000000000000000     
   180.01489874941745        0.0000000000000000       -0.0000000000000000     
   180.00742159021794        0.0000000000000000       -0.0000000000000000     
   179.99766292747020        0.0000000000000000       -0.0000000000000000     
   179.98566237657562        0.0000000000000000       -0.0000000000000000     
   179.97146862774517        0.0000000000000000       -0.0000000000000000     
   179.95513923248242        0.0000000000000000       -0.0000000000000000     
   179.93674035180928        0.0000000000000000       -0.0000000000000000     
   179.91634646763188        0.0000000000000000       -0.0000000000000000     
   179.89404005883614        0.0000000000000000       -0.0000000000000000     
   179.86991124388072        0.0000000000000000       -0.0000000000000000     
   179.84405739181821        0.0000000000000000       -0.0000000000000000     
   179.81658270381894        0.0000000000000000       -0.0000000000000000     
   179.78759776740472        0.0000000000000000       -0.0000000000000000     
   179.75721908570696        0.0000000000000000       -0.0000000000000000     
   179.72556858415868        0.0000000000000000       -0.0000000000000000     
   179.69277309710245        0.0000000000000000       -0.0000000000000000     
   179.65896383685279        0.0000000000000000       -0.0000000000000000     
   179.62427584778854        0.0000000000000000       -0.0000000000000000     
   179.58884744807017        0.0000000000000000       -0.0000000000000000     
   179.55281966157924        0.0000000000000000       -0.0000000000000000     
   179.51633564266393        0.0000000000000000       -0.0000000000000000     
   179.47954009624584        0.0000000000000000       -0.0000000000000000     
   179.44257869579769        0.0000000000000000       -0.0000000000000000     
   179.40559750164846        0.0000000000000000       -0.0000000000000000     
   179.36874238200258        0.0000000000000000       -0.0000000000000000     
   179.33215843898196        0.0000000000000000       -0.0000000000000000     
   179.29598944191235        0.0000000000000000       -0.0000000000000000     
   179.26037726998203        0.0000000000000000       -0.0000000000000000     
   179.22546136629822        0.0000000000000000       -0.0000000000000000     
   179.19137820526302        0.0000000000000000       -0.0000000000000000     
   179.15826077507981        0.0000000000000000       -0.0000000000000000     
   179.12623807709213        0.0000000000000000       -0.0000000000000000     
   179.09543464354252        0.0000000000000000       -0.0000000000000000     
   179.06597007522845        0.0000000000000000       -0.0000000000000000     
   179.03795860042061        0.0000000000000000       -0.0000000000000000     
   179.01150865629964        0.0000000000000000       -0.0000000000000000     
   178.98672249406025        0.0000000000000000       -0.0000000000000000     
   178.96369580872852        0.0000000000000000       -0.0000000000000000     
   178.94251739463934        0.0000000000000000       -0.0000000000000000     
   178.92326882742168        0.0000000000000000       -0.0000000000000000     
   178.90602417325229        0.0000000000000000       -0.0000000000000000     
   178.89084972604692        0.0000000000000000       -0.0000000000000000     
   178.87780377317824        0.0000000000000000       -0.0000000000000000     
   178.86693639022874        0.0000000000000000       -0.0000000000000000     
   178.85828926521296        0.0000000000000000       -0.0000000000000000     
   178.85189555263307        0.0000000000000000       -0.0000000000000000     
   178.84777975766190        0.0000000000000000       -0.0000000000000000     
   178.84595765068488        0.0000000000000000       -0.0000000000000000     
   178.84643621236776        0.0000000000000000        0.0000000000000000     
   173.94938556615568        5.4665796688798345        0.0000000000000000     
   173.87453966643983        5.4615312752833614       0.17163553486114913     
   173.80722433059896        5.4513338415967656       0.34296885473264344     
   173.74729453196923        5.4359960140185386       0.51385291350442863     
   173.69459073890974        5.4155299449331240       0.68414053189973356     
   173.64894056221357        5.3899513822831642       0.85368443305943698     
   173.61016044807857        5.3592797631835625        1.0223372913708377     
   173.57805740468351        5.3235383100667963        1.1899517950175449     
   173.55243075000811        5.2827541276078573        1.3563807225222722     
   173.53307386819725        5.2369582986597161        1.5214770333458378     
   173.51977596151386        5.1861859774373080        1.6850939723964071     
   173.51232378475748        5.1304764782195296        1.8470851880958621     
   173.51050334896794        5.0698733578950863        2.0073048634481641     
   173.51410158128550        5.0044244907583630        2.1656078593606995     
   173.52290792801384        4.9341821340651153        2.3218498692868592     
   173.53671588824213        4.8592029829835690        2.4758875840895622     
   173.55532446582231        4.7795482137224647        2.6275788658737755     
   173.57853952807949        4.6952835137819386        2.7767829294039772     
   173.60617506035268        4.6064790984531099        2.9233605296123537     
   173.63805430631845        4.5132097128852608        3.0671741536171995     
   173.67401078503485        4.4155546192421822        3.2080882156102430     
   173.71388917675250        4.3135975686783690        3.3459692529375369     
   173.75754607075615        4.2074267580776619        3.4806861216918952     
   173.80485056981772        4.0971347717078377        3.6121101901556867     
   173.85568474723650        3.9828185081509995        3.7401155284809362     
   173.90994395390356        3.8645790930676158        3.8645790930680159     
   173.96753697432646        3.7425217785381077        3.9853809042034878     
   174.02838603207820        3.6167558298968752        4.1024042156399236     
   174.09242664665408        3.4873944011262838        4.2155356749432489     
   174.15960734522616        3.3545544000099929        4.3246654735938348     
   174.22988923424279        3.2183563443537153        4.4296874860027309     
   174.30324543721511        3.0789242106652988        4.5304993967908818     
   174.37966040634859        2.9363852767438932        4.6270028158733219     
   174.45912911688575        2.7908699596588198        4.7191033810882379     
   174.54165615412504        2.6425116506028887        4.8067108483089998     
   174.62725470404817        2.4914465480823638        4.8897391691718646     
   174.71594545931458        2.3378134908575912        4.9681065567395981     
   174.80775545306437        2.1817537919759444        5.0417355395983954     
   174.90271683349891        2.0234110751438603        5.1105530050491623     
   175.00086559258403        1.8629311145697396        5.1744902322016824     
   175.10224026244074        1.7004616792768141        5.2334829159091107     
   175.20688059305891        1.5361523827375982        5.2874711825887015     
   175.31482622489310        1.3701545385222458        5.3363995990611590     
   175.42611536968403        1.2026210224851923        5.3802171756044430     
   175.54078351250453        1.0337061418410622        5.4188773644577486     
   175.65886214755812       0.86356551130515191        5.4523380550273197     
   175.78037755968717       0.69235593629907100        5.4805615670384924     
   175.90534966286418       0.52023530305128018        5.5035146428477670     
   176.03379090618094       0.34736247525822933        5.5211684400767300     
   176.16570525700902       0.17389719681722207        5.5334985256568512     
   176.30108727009974       -5.7295014809131222E-013   5.5404848722825877     
   176.43992125043707      -0.17416788169718747        5.5421118581617543     
   176.58218051665381      -0.34844459688795054        5.5383682708285980     
   176.72782677079124      -0.52266775680278132        5.5292473156490196     
   176.87680957912355      -0.69667451399326286        5.5147466295010394     
   177.02906596769751      -0.87030164034677593        5.4948682999595819     
   177.18452013515844       -1.0433856055451998        5.4696188901554326     
   177.34308328435378       -1.2157626571212354        5.4390094693163009     
   177.50465357313237       -1.3872689032600982        5.4030556488359593     
   177.66911618369662       -1.5577403994685093        5.3617776235578951     
   177.83634350882323       -1.7270132401870815        5.3152002178052244     
   178.00619545224836       -1.8949236563571568        5.2633529355411772     
   178.17851983952579       -2.0613081198700596        5.2062700139065035     
   178.35315293470964       -2.2260034557267301        5.1439904792537039     
   178.52992005730428       -2.3888469626206379        5.0765582046851314     
   178.70863629305069       -2.5496765425281978        5.0040219680042277     
   178.88910729130805       -2.7083308397508725        4.9264355089083045     
   179.07113014102885       -2.8646493897037080        4.8438575841883287     
   179.25449431663466       -3.0184727775886091        4.7563520196574016     
   179.43898268447617       -3.1696428069295979        4.6639877575056543     
   179.62437256001763       -3.3180026777841460        4.5668388977756500     
   179.81043680542183       -3.4633971742819338        4.4649847326692678     
   179.99694495684304       -3.6056728609828439        4.3585097724342718     
   180.18366437045583       -3.7446782873919116        4.2475037616358735     
   180.37036137607316       -3.8802641998231628        4.1320616846948246     
   180.55680242713458       -4.0122837596689749        4.0122837596677288     
   180.74275523588557       -4.1405927670091529        3.8882754193561726     
   180.92798988271139       -4.2650498883862848        3.7601472789566848     
   181.11227988885670       -4.3855168874832904        3.6280150896022638     
   181.29540324212670       -4.5018588573663951        3.4919996772951563     
   181.47714336565343       -4.6139444529040343        3.3522268668880422     
   181.65729002039646       -4.7216461219396981        3.2088273909336205     
   181.83564013273985       -4.8248403337855086        3.0619367833884845     
   182.01199853933406       -4.9234078036132756        2.9116952583230411     
   182.18617864220428       -5.0172337113509062        2.7582475739524237     
   182.35800296809978       -5.1062079137435630        2.6017428824610684     
   182.52730362707939       -5.1902251483102502        2.4423345662432374     
   182.69392266639949       -5.2691852280157025        2.2801800613205834     
   182.85771231689233       -5.3429932255835784        2.1154406688238936     
   183.01853513016559       -5.4115596464973699        1.9482813555369674     
   183.17626400611667       -5.4748005898684680        1.7788705445946709     
   183.33078211141810       -5.5326378964936795        1.6073798975030604     
   183.48198269077790       -5.5849992835746356        1.4339840887058510     
   183.62976877390406       -5.6318184657265000        1.2588605739579246     
   183.77405278218447       -5.6730352620599067        1.0821893537824636     
   183.91475604012675       -5.7085956892759304       0.90415273328387802     
   184.05180819757246       -5.7384520408659210       0.72493507956423453     
   184.18514656960085       -5.7625629526540072       0.54472257794729628     
   184.31471540185279       -5.7808934550571518       0.36370298815254570     
   184.44046506974254       -5.7934150125640391       0.18206540148319444     
   184.56235122066147       -5.8001055510473041       -1.1995958516348058E-012
   184.68033386882752       -5.8009494736223814      -0.18230218146330759     
   184.79437645287882       -5.7959376658487258      -0.36464948967099525     
   184.90444486666058       -5.7850674911344520      -0.54684988316395322     
   185.01050647390718       -5.7683427772527462      -0.72871115771569672     
   185.11252911767372       -5.7457737949068575      -0.91004116673899060     
   185.21048013543475       -5.7173772292904586       -1.0906480364205773     
   185.30432539073607       -5.6831761455811982       -1.2703403755080636     
   185.39402833217034       -5.6431999492782854       -1.4489274798053777     
   185.47954909024543       -5.5974843422501026       -1.6262195315614107     
   185.56084362243678       -5.5460712752966037       -1.8020277940568157     
   185.63786291636191       -5.4890088979543226       -1.9761648018047060     
   185.71055226059073       -5.4263515061808798       -2.1484445468801665     
   185.77885059211647       -5.3581594884523112       -2.3186826619795027     
   185.84268992895818       -5.2844992706922023       -2.4866966008814653     
   185.90199489575429       -5.2054432603282610       -2.6523058170380618     
   185.95668234953396       -5.1210697896416093       -2.8153319410609252     
   186.00666111213130       -5.0314630584388933       -2.9755989578897459     
   186.05183181492626       -4.9367130759393474       -3.1329333844313290     
   186.09208686076681       -4.8369156016304231       -3.2871644484410387     
   186.12731050704622       -4.7321720847089788       -3.4381242693826564     
   186.15737907297969       -4.6225896015923018       -3.5856480419479975     
   186.18216127314537       -4.5082807908569311       -3.7295742228444633     
   186.20151867833169       -4.3893637848456057       -3.8697447213675291     
   186.21530630366647       -4.2659621370758485       -4.0060050941670520     
   186.22337332289064       -4.1382047444899204       -4.1382047444920618     
   186.22556390649873       -4.0062257635073149       -4.2661971260601286     
   186.22171818028644       -3.8701645187794704       -4.3898399515458255     
   186.21167329964575       -3.7301654035038383       -4.5089954055204453     
   186.19526463372563       -3.5863777701324908       -4.6235303615040104     
   186.17232705234917       -3.4389558103104889       -4.7333166026133293     
   186.14269630735257       -3.2880584229023526       -4.8382310451091151     
   186.10621049880041       -3.1338490690122001       -4.9381559639637036     
   186.06271161535454       -2.9764956129745617       -5.0329792193923515     
   186.01204713693940       -2.8161701483892698       -5.1225944831179628     
   185.95407168677608       -2.6530488083939985       -5.2069014629755808     
   185.88864871886966       -2.4873115595122797       -5.2858061243117920     
   185.81565222614429       -2.3191419785807499       -5.3592209064993668     
   185.73496845365199       -2.1487270124464914       -5.4270649327718123     
   185.64649760064700       -1.9762567203301811       -5.4892642114895960     
   185.55015549484386       -1.8019239989718996       -5.5457518268822739     
   185.44587522187172       -1.6259242909094989       -5.5964681172714821     
   185.33360869282356       -1.4484552764820140       -5.6413608387706509     
   185.21332813288348       -1.2697165503976044       -5.6803853124804107     
   185.08502747431081       -1.0899092839538398       -5.7135045532548743     
   184.94872363757173      -0.90923587424209296       -5.7406893782040491     
   184.80445768514176      -0.72789958190402770       -5.7619184932214242     
   184.65229583345072      -0.54610415923069411       -5.7771785559823359     
   184.49233030960514      -0.36405347060012655       -5.7864642140468190     
   184.32468004088395      -0.18195110743244297       -5.7897781169177271     
   184.14949116655660        1.7979385937327396E-012  -5.7871309011483314     
   183.96693736328760       0.18159797145689599       -5.7785411478596691     
   183.77721997725635       0.36264236371424169       -5.7640353123123749     
   183.58056795809981       0.54293455309613270       -5.7436476254762105     
   183.37723759185639       0.72227811085541893       -5.7174199678476922     
   183.16751203221261       0.90047916882286494       -5.6854017160768970     
   182.95170063150343        1.0773467727514798       -5.6476495632731680     
   182.73013807505347        1.2526932208923793       -5.6042273141606644     
   182.50318332453583        1.4263343854700599       -5.5552056565427463     
   182.27121837803870        1.5980900148929436       -5.5006619108044124     
   182.03464685642842        1.7677840147361898       -5.4406797594290168     
   181.79389242736292        1.9352447057634437       -5.3753489587255840     
   181.54939707990150        2.1003050575094848       -5.3047650351518056     
   181.30161926406996        2.2628028962213191       -5.2290289687728553     
   181.05103191094426        2.4225810862468165       -5.1482468665146301     
   180.79812034980222        2.5794876842624865       -5.0625296279504317     
   180.54338013965724        2.7333760660397752       -4.9719926064019928     
   180.28731483301922        2.8841050257580201       -4.8767552681384139     
   180.03043369003640        3.0315388481760066       -4.7769408524215029     
   179.77324936125433        3.1755473542691415       -4.6726760350738497     
   179.51627555710232        3.3160059212201438       -4.5640905981393916     
   179.26002472189299        3.4527954779149899       -4.4513171080673581     
   179.00500572961332        3.5858024773379289       -4.3344906046827756     
   178.75172161811597        3.7149188474779042       -4.2137483030131415     
   178.50066737751033        3.8400419225501863       -4.0892293098258730     
   178.25232780762019        3.9610743565005158       -3.9610743564976465     
   178.00717545834601        4.0779240208924374       -3.8294255495897978     