 VARIABLES = "x_1", "x_2", "x_3"
 ZONE F = POINT , I =         201  , J =         101
   3330.4400003742376        0.0000000000000000        0.0000000000000000     
   3330.4400003742376        0.0000000000000000        0.0000000000000000     
   3330.4400003742376        0.0000000000000000        0.0000000000000000     
   3330.4400003742376        0.0000000000000000        0.0000000000000000     
   3330.4400003742376        0.0000000000000000        0.0000000000000000     
   3330.4400003742376        0.0000000000000000        0.0000000000000000     
   3330.4400003742376        0.0000000000000000        0.0000000000000000     
   3330.4400003742376        0.0000000000000000        0.0000000000000000     
   3330.4400003742376        0.0000000000000000        0.0000000000000000     
   3330.4400003742376        0.0000000000000000        0.0000000000000000     
   3330.4400003742376        0.0000000000000000        0.0000000000000000     
   3330.4400003742376        0.0000000000000000        0.0000000000000000     
   3330.4400003742376        0.0000000000000000        0.0000000000000000     
   3330.4400003742376        0.0000000000000000        0.0000000000000000     
   3330.4400003742376        0.0000000000000000        0.0000000000000000     
   3330.4400003742376        0.0000000000000000        0.0000000000000000     
   3330.4400003742376        0.0000000000000000        0.0000000000000000     
   3330.4400003742376        0.0000000000000000        0.0000000000000000     
   3330.4400003742376        0.0000000000000000        0.0000000000000000     
   3330.4400003742376        0.0000000000000000        0.0000000000000000     
   3330.4400003742376        0.0000000000000000        0.0000000000000000     
   3330.4400003742376        0.0000000000000000        0.0000000000000000     
   3330.4400003742376        0.0000000000000000        0.0000000000000000     
   3330.4400003742376        0.0000000000000000        0.0000000000000000     
   3330.4400003742376        0.0000000000000000        0.0000000000000000     
   3330.4400003742376        0.0000000000000000        0.0000000000000000     
   3330.4400003742376        0.0000000000000000        0.0000000000000000     
   3330.4400003742376        0.0000000000000000        0.0000000000000000     
   3330.4400003742376        0.0000000000000000        0.0000000000000000     
   3330.4400003742376        0.0000000000000000        0.0000000000000000     
   3330.4400003742376        0.0000000000000000        0.0000000000000000     
   3330.4400003742376        0.0000000000000000        0.0000000000000000     
   3330.4400003742376        0.0000000000000000        0.0000000000000000     
   3330.4400003742376        0.0000000000000000        0.0000000000000000     
   3330.4400003742376        0.0000000000000000        0.0000000000000000     
   3330.4400003742376        0.0000000000000000        0.0000000000000000     
   3330.4400003742376        0.0000000000000000        0.0000000000000000     
   3330.4400003742376        0.0000000000000000        0.0000000000000000     
   3330.4400003742376        0.0000000000000000        0.0000000000000000     
   3330.4400003742376        0.0000000000000000        0.0000000000000000     
   3330.4400003742376        0.0000000000000000        0.0000000000000000     
   3330.4400003742376        0.0000000000000000        0.0000000000000000     
   3330.4400003742376        0.0000000000000000        0.0000000000000000     
   3330.4400003742376        0.0000000000000000        0.0000000000000000     
   3330.4400003742376        0.0000000000000000        0.0000000000000000     
   3330.4400003742376        0.0000000000000000        0.0000000000000000     
   3330.4400003742376        0.0000000000000000        0.0000000000000000     
   3330.4400003742376        0.0000000000000000        0.0000000000000000     
   3330.4400003742376        0.0000000000000000        0.0000000000000000     
   3330.4400003742376        0.0000000000000000        0.0000000000000000     
   3330.4400003742376       -0.0000000000000000        0.0000000000000000     
   3330.4400003742376       -0.0000000000000000        0.0000000000000000     
   3330.4400003742376       -0.0000000000000000        0.0000000000000000     
   3330.4400003742376       -0.0000000000000000        0.0000000000000000     
   3330.4400003742376       -0.0000000000000000        0.0000000000000000     
   3330.4400003742376       -0.0000000000000000        0.0000000000000000     
   3330.4400003742376       -0.0000000000000000        0.0000000000000000     
   3330.4400003742376       -0.0000000000000000        0.0000000000000000     
   3330.4400003742376       -0.0000000000000000        0.0000000000000000     
   3330.4400003742376       -0.0000000000000000        0.0000000000000000     
   3330.4400003742376       -0.0000000000000000        0.0000000000000000     
   3330.4400003742376       -0.0000000000000000        0.0000000000000000     
   3330.4400003742376       -0.0000000000000000        0.0000000000000000     
   3330.4400003742376       -0.0000000000000000        0.0000000000000000     
   3330.4400003742376       -0.0000000000000000        0.0000000000000000     
   3330.4400003742376       -0.0000000000000000        0.0000000000000000     
   3330.4400003742376       -0.0000000000000000        0.0000000000000000     
   3330.4400003742376       -0.0000000000000000        0.0000000000000000     
   3330.4400003742376       -0.0000000000000000        0.0000000000000000     
   3330.4400003742376       -0.0000000000000000        0.0000000000000000     
   3330.4400003742376       -0.0000000000000000        0.0000000000000000     
   3330.4400003742376       -0.0000000000000000        0.0000000000000000     
   3330.4400003742376       -0.0000000000000000        0.0000000000000000     
   3330.4400003742376       -0.0000000000000000        0.0000000000000000     
   3330.4400003742376       -0.0000000000000000        0.0000000000000000     
   3330.4400003742376       -0.0000000000000000        0.0000000000000000     
   3330.4400003742376       -0.0000000000000000        0.0000000000000000     
   3330.4400003742376       -0.0000000000000000        0.0000000000000000     
   3330.4400003742376       -0.0000000000000000        0.0000000000000000     
   3330.4400003742376       -0.0000000000000000        0.0000000000000000     
   3330.4400003742376       -0.0000000000000000        0.0000000000000000     
   3330.4400003742376       -0.0000000000000000        0.0000000000000000     
   3330.4400003742376       -0.0000000000000000        0.0000000000000000     
   3330.4400003742376       -0.0000000000000000        0.0000000000000000     
   3330.4400003742376       -0.0000000000000000        0.0000000000000000     
   3330.4400003742376       -0.0000000000000000        0.0000000000000000     
   3330.4400003742376       -0.0000000000000000        0.0000000000000000     
   3330.4400003742376       -0.0000000000000000        0.0000000000000000     
   3330.4400003742376       -0.0000000000000000        0.0000000000000000     
   3330.4400003742376       -0.0000000000000000        0.0000000000000000     
   3330.4400003742376       -0.0000000000000000        0.0000000000000000     
   3330.4400003742376       -0.0000000000000000        0.0000000000000000     
   3330.4400003742376       -0.0000000000000000        0.0000000000000000     
   3330.4400003742376       -0.0000000000000000        0.0000000000000000     
   3330.4400003742376       -0.0000000000000000        0.0000000000000000     
   3330.4400003742376       -0.0000000000000000        0.0000000000000000     
   3330.4400003742376       -0.0000000000000000        0.0000000000000000     
   3330.4400003742376       -0.0000000000000000        0.0000000000000000     
   3330.4400003742376       -0.0000000000000000        0.0000000000000000     
   3330.4400003742376       -0.0000000000000000        0.0000000000000000     
   3330.4400003742376       -0.0000000000000000       -0.0000000000000000     
   3330.4400003742376       -0.0000000000000000       -0.0000000000000000     
   3330.4400003742376       -0.0000000000000000       -0.0000000000000000     
   3330.4400003742376       -0.0000000000000000       -0.0000000000000000     
   3330.4400003742376       -0.0000000000000000       -0.0000000000000000     
   3330.4400003742376       -0.0000000000000000       -0.0000000000000000     
   3330.4400003742376       -0.0000000000000000       -0.0000000000000000     
   3330.4400003742376       -0.0000000000000000       -0.0000000000000000     
   3330.4400003742376       -0.0000000000000000       -0.0000000000000000     
   3330.4400003742376       -0.0000000000000000       -0.0000000000000000     
   3330.4400003742376       -0.0000000000000000       -0.0000000000000000     
   3330.4400003742376       -0.0000000000000000       -0.0000000000000000     
   3330.4400003742376       -0.0000000000000000       -0.0000000000000000     
   3330.4400003742376       -0.0000000000000000       -0.0000000000000000     
   3330.4400003742376       -0.0000000000000000       -0.0000000000000000     
   3330.4400003742376       -0.0000000000000000       -0.0000000000000000     
   3330.4400003742376       -0.0000000000000000       -0.0000000000000000     
   3330.4400003742376       -0.0000000000000000       -0.0000000000000000     
   3330.4400003742376       -0.0000000000000000       -0.0000000000000000     
   3330.4400003742376       -0.0000000000000000       -0.0000000000000000     
   3330.4400003742376       -0.0000000000000000       -0.0000000000000000     
   3330.4400003742376       -0.0000000000000000       -0.0000000000000000     
   3330.4400003742376       -0.0000000000000000       -0.0000000000000000     
   3330.4400003742376       -0.0000000000000000       -0.0000000000000000     
   3330.4400003742376       -0.0000000000000000       -0.0000000000000000     
   3330.4400003742376       -0.0000000000000000       -0.0000000000000000     
   3330.4400003742376       -0.0000000000000000       -0.0000000000000000     
   3330.4400003742376       -0.0000000000000000       -0.0000000000000000     
   3330.4400003742376       -0.0000000000000000       -0.0000000000000000     
   3330.4400003742376       -0.0000000000000000       -0.0000000000000000     
   3330.4400003742376       -0.0000000000000000       -0.0000000000000000     
   3330.4400003742376       -0.0000000000000000       -0.0000000000000000     
   3330.4400003742376       -0.0000000000000000       -0.0000000000000000     
   3330.4400003742376       -0.0000000000000000       -0.0000000000000000     
   3330.4400003742376       -0.0000000000000000       -0.0000000000000000     
   3330.4400003742376       -0.0000000000000000       -0.0000000000000000     
   3330.4400003742376       -0.0000000000000000       -0.0000000000000000     
   3330.4400003742376       -0.0000000000000000       -0.0000000000000000     
   3330.4400003742376       -0.0000000000000000       -0.0000000000000000     
   3330.4400003742376       -0.0000000000000000       -0.0000000000000000     
   3330.4400003742376       -0.0000000000000000       -0.0000000000000000     
   3330.4400003742376       -0.0000000000000000       -0.0000000000000000     
   3330.4400003742376       -0.0000000000000000       -0.0000000000000000     
   3330.4400003742376       -0.0000000000000000       -0.0000000000000000     
   3330.4400003742376       -0.0000000000000000       -0.0000000000000000     
   3330.4400003742376       -0.0000000000000000       -0.0000000000000000     
   3330.4400003742376       -0.0000000000000000       -0.0000000000000000     
   3330.4400003742376       -0.0000000000000000       -0.0000000000000000     
   3330.4400003742376       -0.0000000000000000       -0.0000000000000000     
   3330.4400003742376       -0.0000000000000000       -0.0000000000000000     
   3330.4400003742376        0.0000000000000000       -0.0000000000000000     
   3330.4400003742376        0.0000000000000000       -0.0000000000000000     
   3330.4400003742376        0.0000000000000000       -0.0000000000000000     
   3330.4400003742376        0.0000000000000000       -0.0000000000000000     
   3330.4400003742376        0.0000000000000000       -0.0000000000000000     
   3330.4400003742376        0.0000000000000000       -0.0000000000000000     
   3330.4400003742376        0.0000000000000000       -0.0000000000000000     
   3330.4400003742376        0.0000000000000000       -0.0000000000000000     
   3330.4400003742376        0.0000000000000000       -0.0000000000000000     
   3330.4400003742376        0.0000000000000000       -0.0000000000000000     
   3330.4400003742376        0.0000000000000000       -0.0000000000000000     
   3330.4400003742376        0.0000000000000000       -0.0000000000000000     
   3330.4400003742376        0.0000000000000000       -0.0000000000000000     
   3330.4400003742376        0.0000000000000000       -0.0000000000000000     
   3330.4400003742376        0.0000000000000000       -0.0000000000000000     
   3330.4400003742376        0.0000000000000000       -0.0000000000000000     
   3330.4400003742376        0.0000000000000000       -0.0000000000000000     
   3330.4400003742376        0.0000000000000000       -0.0000000000000000     
   3330.4400003742376        0.0000000000000000       -0.0000000000000000     
   3330.4400003742376        0.0000000000000000       -0.0000000000000000     
   3330.4400003742376        0.0000000000000000       -0.0000000000000000     
   3330.4400003742376        0.0000000000000000       -0.0000000000000000     
   3330.4400003742376        0.0000000000000000       -0.0000000000000000     
   3330.4400003742376        0.0000000000000000       -0.0000000000000000     
   3330.4400003742376        0.0000000000000000       -0.0000000000000000     
   3330.4400003742376        0.0000000000000000       -0.0000000000000000     
   3330.4400003742376        0.0000000000000000       -0.0000000000000000     
   3330.4400003742376        0.0000000000000000       -0.0000000000000000     
   3330.4400003742376        0.0000000000000000       -0.0000000000000000     
   3330.4400003742376        0.0000000000000000       -0.0000000000000000     
   3330.4400003742376        0.0000000000000000       -0.0000000000000000     
   3330.4400003742376        0.0000000000000000       -0.0000000000000000     
   3330.4400003742376        0.0000000000000000       -0.0000000000000000     
   3330.4400003742376        0.0000000000000000       -0.0000000000000000     
   3330.4400003742376        0.0000000000000000       -0.0000000000000000     
   3330.4400003742376        0.0000000000000000       -0.0000000000000000     
   3330.4400003742376        0.0000000000000000       -0.0000000000000000     
   3330.4400003742376        0.0000000000000000       -0.0000000000000000     
   3330.4400003742376        0.0000000000000000       -0.0000000000000000     
   3330.4400003742376        0.0000000000000000       -0.0000000000000000     
   3330.4400003742376        0.0000000000000000       -0.0000000000000000     
   3330.4400003742376        0.0000000000000000       -0.0000000000000000     
   3330.4400003742376        0.0000000000000000       -0.0000000000000000     
   3330.4400003742376        0.0000000000000000       -0.0000000000000000     
   3330.4400003742376        0.0000000000000000       -0.0000000000000000     
   3330.4400003742376        0.0000000000000000       -0.0000000000000000     
   3330.4400003742376        0.0000000000000000       -0.0000000000000000     
   3330.4400003742376        0.0000000000000000       -0.0000000000000000     
   3330.4400003742376        0.0000000000000000       -0.0000000000000000     
   3330.4400003742376        0.0000000000000000       -0.0000000000000000     
   3330.4400003742376        0.0000000000000000        0.0000000000000000     
   3334.1800101397375        104.78082803508151        0.0000000000000000     
   3333.1474424011567        104.69669128514911        3.2902260741859171     
   3332.1265349922533        104.50966129080489        6.5751905649030640     
   3331.1183238125413        104.22001665837311        9.8516921401853086     
   3330.1237760572408        103.82813277518970        13.116543478710581     
   3329.1437894608443        103.33448111878970        16.366573958226965     
   3328.1791918253634        102.73962851576697        19.598632311529457     
   3327.2307408316005        102.04423635156449        22.809589251592175     
   3326.2991241308009        101.24905973210961        25.996340067472815     
   3325.3849597129824        100.35494659786967        29.155807192580433     
   3324.4887965472358        99.362836790573070        32.284942746835121     
   3323.6111154883515        98.273761072525616        35.380731054151155     
   3322.7523304431243        97.088840098149632        38.440191136543532     
   3321.9127897887447        95.809283337091344        41.460379185994888     
   3321.0927780348052        94.436387947982823        44.438391015027214     
   3320.2925177195229        92.971537601708647        47.371364486702419     
   3319.5121715299365        91.416201252818851        50.256481924531649     
   3318.7518446350205        89.771931857552346        53.090972502506375     
   3318.0115872198535        88.040365036785190        55.872114615179591     
   3317.2913972082583        86.223217682105954        58.597238227424739     
   3316.5912231605639        84.322286503137533        61.263727203187202     
   3315.9109673325902        82.339446514182271        63.869021612222397     
   3315.2504888812005        80.276649458255733        66.410620013487673     
   3314.6096072013606        78.135922166604203        68.886081713527915     
   3313.9881053790082        75.919364851862170        71.293028997869229     
   3313.3857337437103        73.629149333108202        73.629149333115834     
   3312.8022135045808        71.267517191209265        75.892197537133754     
   3312.2372404527277        68.836777853015207        78.079997914410086     
   3311.6904887131764        66.339306603165568        80.190446353393668     
   3311.1616145290432        63.777542522503040        82.221512382362874     
   3310.6502600606345        61.153986352350486        84.171241180127097     
   3310.1560571821024        58.471198284196433        86.037755537656182     
   3309.6786312583158        55.731795674646129        87.819257766546613     
   3309.2176048847055        52.938450685828450        89.514031550078542     
   3308.7726015730559        50.093887851801455        91.120443732497066     
   3308.3432493664336        47.200881571864478        92.636946042062249     
   3307.9291843668138        44.262253532063070        94.062076743361672     
   3307.5300541593574        41.280870056558342        95.394462214363458     
   3307.1455211177658        38.259639390921372        96.632818443710875     
   3306.7752655757249        35.201508919803224        97.775952443819307     
   3306.4189888500273        32.109462321817425        98.822763575434422     
   3306.0764161017055        28.986516664850733        99.772244779446353     
   3305.7472990222141        25.835719445386022        100.62348371192591     
   3305.4314183325491        22.660145575775164        101.37566377855640     
   3305.1285860840362        19.462894323735085        102.02806506487543     
   3304.8386477504628        16.247086208655194        102.58006515901461     
   3304.5614841021857        13.015859859594036        103.03113986392756     
   3304.2970128538545        9.7723688401067985        103.38086379642641     
   3304.0451900784446        6.5197784452780141        103.62891087070207     
   3303.8060113813585        3.2612624765355531        103.77505466437900     
   3303.5795128294903       -1.0736101520504313E-011   103.81916866555078     
   3303.3657716312055       -3.2608279058307326        103.76122639964964     
   3303.1649065643801       -6.5180414068660797        103.60130143542608     
   3302.9770781507686       -9.7684651690256157        103.33956726974137     
   3302.8024885760751       -13.008931606238427        102.97629709130808     
   3302.6413813562895       -16.236284115039012        102.51186342394638     
   3302.4940407519216       -19.447380289716506        101.94673765035171     
   3302.3607909329271       -22.639095112156632        101.28148941779300     
   3302.2419948981342       -25.808324110637187        100.51678592756814     
   3302.1380531540972       -28.951986482006514        99.653391110443067     
   3302.0494021592904       -32.067028171876444        98.692164690677458     
   3301.9765125405429       -35.150424907695239        97.634061141599247     
   3301.9198870895780       -38.199185179830664        96.480128536024367     
   3301.8800585483691       -41.210353166083287        95.231507295125724     
   3301.8575871929543       -44.181011595367522        93.889428839636395     
   3301.8530582260564       -47.108284546634067        92.455214147519229     
   3301.8670789896773       -49.989340179464236        90.930272222452132     
   3301.9002760094545       -52.821393393137399        89.316098477659594     
   3301.9532918832697       -55.601708411356853        87.614273039769259     
   3302.0267820270956       -58.327601290210268        85.826458977481252     
   3302.1214112916405       -60.996442347338835        83.954400459913899     
   3302.2378504637581       -63.605658510686453        81.999920849525850     
   3302.3767726670180       -66.152735585598577        79.964920734516866     
   3302.5388496761261       -68.635220439429688        77.851375905572993     
   3302.7247481601976       -71.050723103202728        75.661335281753523     
   3302.9351258700876       -73.396918790234182        73.396918790211373     
   3303.1706277851135       -75.671549831993516        71.060315204302654     
   3303.4318822346690       -77.872427531805442        68.653779944472703     
   3303.7194970102496       -79.997433937320167        66.179632846109655     
   3304.0340554833770       -82.044523532970572        63.640255898331596     
   3304.3761127449507       -84.011724853906173        61.038090957426562     
   3304.7461917813603       -85.897142023132957        58.375637438392616     
   3305.1447797026194       -87.698956213802049        55.655449987737192     
   3305.5723240375632       -89.415427038770403        52.880136140387783     
   3306.0292291109458       -91.044893869706542        50.052353963247590     
   3306.5158525169868       -92.585777088128623        47.174809687599229     
   3307.0325017036075       -94.036579270844896        44.250255332223617     
   3307.5794306812991       -95.395886312313763        41.281486318760095     
   3308.1568368701069       -96.662368486451456        38.271339080491948     
   3308.7648580978944       -97.834781450394843        35.222688665403560     
   3309.4035697625336       -98.911967192669252        32.138446334020905     
   3310.0729821702189       -99.892854928120727        29.021557152223835     
   3310.7730380616104       -100.77646194184976        25.874997578905617     
   3311.5036103369307       -101.56189438422825        22.701773048057728     
   3312.2644999906283       -102.24834801889763        19.504915544578683     
   3313.0554342655569       -102.83510892543129        16.287481172846434     
   3313.8760650360628       -103.32155415810654        13.052547716858649     
   3314.7259674286415       -103.70715236196530        9.8032121905349374     
   3315.6046386882331       -103.99146434705813        6.5425883765937769     
   3316.5114972974097       -104.17414362145901        3.2738043522648885     
   3317.4458823550581       -104.25493688331672       -2.1562329977786858E-011
   3318.4070532203264       -104.23368447187151       -3.2756754989135457     
   3319.3941894268537       -104.11032077701945       -6.5500661893789616     
   3320.4063908714447       -103.88487460665112       -9.8200118889207211     
   3321.4426782805058       -103.55746951063279       -13.082350756752657     
   3322.5019939567069       -103.12832405993836       -16.333921887863738     
   3323.5832028073787       -102.59775207908244       -19.571567933799486     
   3324.6850936552883       -101.96616282965476       -22.792137751854469     
   3325.8063808314041       -101.23406114241298       -25.992489084194002     
   3326.9457060483915       -100.40204749506512       -29.169491268214422     
   3328.1016405524683       -99.470818032559009       -32.320027979202806     
   3329.2726875503276       -98.441164526406340       -35.441000006075981     
   3330.4572849067795       -97.313974269301966       -38.529328060663502     
   3331.6538081076696       -96.090229901055906       -41.581955620652607     
   3332.8605734817079       -94.771009161649488       -44.595851805938587     
   3334.0758416736271       -93.357484567044978       -47.568014287720764     
   3335.2978213601759       -91.850923003240382       -50.495472229260017     
   3336.5246731993111       -90.252685233955603       -53.375289256766216     
   3337.7545140019438       -88.564225317275515       -56.204566458421361     
   3338.9854211145462       -86.787089926554060       -58.980445409066228     
   3340.2154369999339       -84.922917570910172       -61.700111217592202     
   3341.4425740025349       -82.973437710715501       -64.360795593586616     
   3342.6648192834850       -80.940469763590713       -66.959779929286455     
   3343.8801399099989       -78.825921996593408       -69.494398392402886     
   3345.0864880825729       -76.631790300491048       -71.962041024896749     
   3346.2818064827197       -74.360156842271849       -74.360156842310332     
   3347.4640337232099       -72.013188592353330       -76.686256927807534     
   3348.6311098820411       -69.593135723298900       -78.937917514636965     
   3349.7809821007299       -67.102329877248494       -81.112783050323884     
   3350.9116102269468       -64.543182299707269       -83.208569235515981     
   3352.0209724810284       -61.918181837813542       -85.223066030061347     
   3353.1070711254906       -59.229892801719963       -87.154140618588642     
   3354.1679381163517       -56.480952688272879       -88.999740327590331     
   3355.2016407148672       -53.674069766748005       -90.757895485790087     
   3356.2062870381337       -50.812020527009274       -92.426722219397462     
   3357.1800315270366       -47.897646991078631       -94.004425173733054     
   3358.1210803100757       -44.933853889751951       -95.489300152633149     
   3359.0276964418113       -41.923605706546283       -96.879736667030429     
   3359.8982049949732       -38.869923591931062       -98.174220384145684     
   3360.7309979857041       -35.775882151455448       -99.371335468826786     
   3361.5245391119133       -32.644606112049480       -100.46976680872424     
   3362.2773682853594       -29.479266871424418       -101.46830211521035     
   3362.9881059388158       -26.283078936140910       -102.36583389221700     
   3363.6554570905314       -23.059296254526931       -103.16136126549813     
   3364.2782151490892       -19.811208451226989       -103.85399166520062     
   3364.8552654428877       -16.542136970722826       -104.44294235506608     
   3365.3855884594814       -13.255431137700578       -104.92754180206440     
   3365.8682627813678       -9.9544641426251452       -105.30723088079489     
   3366.3024677059348       -6.6426289613314760       -105.58156390755808     
   3366.6874855387891       -3.3233342178424423       -105.75020949961643     
   3367.0227035510002        3.2873835416755716E-011  -105.81295125580415     
   3367.3076155922899        3.3239463624671246       -105.76968825532198     
   3367.5418233537680        6.6450745466642225       -105.62043537225188     
   3367.7250372752624        9.9599555029213409       -105.36532340404170     
   3367.8570770939564        13.265165727321994       -105.00459901294350     
   3367.9378720325858        16.557291530615963       -104.53862448012599     
   3367.9674606270669        19.832933292852715       -103.96787727292299     
   3367.9459901949849        23.088709693395192       -103.29294942641660     
   3367.8737159479952        26.321261906074582       -102.51454674128230     
   3367.7509997527209        29.527257749427587       -101.63348780053624     
   3367.5783085462199        32.703395782208553       -100.65070280851647     
   3367.3562124136506        35.846409334664195       -99.567232256100780     
   3367.0853823371076        38.953070466416783       -98.384225416797122     
   3366.7665876260530        42.020193842202424       -97.102938678949116     
   3366.4006930410228        45.044640517160047       -95.724733719860609     
   3365.9886556235351        48.023321623861399       -94.251075528163412     
   3365.5315212463224        50.953201953797198       -92.683530281230148     
   3365.0304208990492        53.831303426601949       -91.023763084855304     
   3364.4865667256795        56.654708440885670       -89.273535582804911     
   3363.9012478305649        59.420563101160162       -87.434703444152206     
   3363.2758258711519        62.126080315975393       -85.509213736585394     
   3362.6117304558511        64.768542763030680       -83.499102194077025     
   3361.9104543663302        67.345305717675529       -81.406490387463748     
   3361.1735486238958        69.853799741874099       -79.233582806573693     
   3360.4026174201485        72.291533231357306       -76.982663862585454     
   3359.5993129323238        74.656094819335578       -74.656094819281506     
   3358.7653300440425        76.945155635775976       -72.256310661795922     