 VARIABLES = "x_1", "x_2", "x_3"
 ZONE F = POINT , I =         201  , J =         101
   1429.4495522597992        0.0000000000000000        0.0000000000000000     
   1429.8097161880951        0.0000000000000000        0.0000000000000000     
   1430.1705060705001        0.0000000000000000        0.0000000000000000     
   1430.5304975642359        0.0000000000000000        0.0000000000000000     
   1430.8882662576962        0.0000000000000000        0.0000000000000000     
   1431.2423933435339        0.0000000000000000        0.0000000000000000     
   1431.5914713199813        0.0000000000000000        0.0000000000000000     
   1431.9341096965061        0.0000000000000000        0.0000000000000000     
   1432.2689406791094        0.0000000000000000        0.0000000000000000     
   1432.5946248098887        0.0000000000000000        0.0000000000000000     
   1432.9098565349389        0.0000000000000000        0.0000000000000000     
   1433.2133696742712        0.0000000000000000        0.0000000000000000     
   1433.5039427672164        0.0000000000000000        0.0000000000000000     
   1433.7804042667376        0.0000000000000000        0.0000000000000000     
   1434.0416375562158        0.0000000000000000        0.0000000000000000     
   1434.2865857626343        0.0000000000000000        0.0000000000000000     
   1434.5142563406325        0.0000000000000000        0.0000000000000000     
   1434.7237254026682        0.0000000000000000        0.0000000000000000     
   1434.9141417714816        0.0000000000000000        0.0000000000000000     
   1435.0847307322592        0.0000000000000000        0.0000000000000000     
   1435.2347974632385        0.0000000000000000        0.0000000000000000     
   1435.3637301250965        0.0000000000000000        0.0000000000000000     
   1435.4710025912018        0.0000000000000000        0.0000000000000000     
   1435.5561768027417        0.0000000000000000        0.0000000000000000     
   1435.6189047348169        0.0000000000000000        0.0000000000000000     
   1435.6589299618006        0.0000000000000000        0.0000000000000000     
   1435.6760888126066        0.0000000000000000        0.0000000000000000     
   1435.6703111089107        0.0000000000000000        0.0000000000000000     
   1435.6416204818879        0.0000000000000000        0.0000000000000000     
   1435.5901342655427        0.0000000000000000        0.0000000000000000     
   1435.5160629672851        0.0000000000000000        0.0000000000000000     
   1435.4197093189398        0.0000000000000000        0.0000000000000000     
   1435.3014669139066        0.0000000000000000        0.0000000000000000     
   1435.1618184386423        0.0000000000000000        0.0000000000000000     
   1435.0013335090189        0.0000000000000000        0.0000000000000000     
   1434.8206661243837        0.0000000000000000        0.0000000000000000     
   1434.6205517542976        0.0000000000000000        0.0000000000000000     
   1434.4018040749338        0.0000000000000000        0.0000000000000000     
   1434.1653113739492        0.0000000000000000        0.0000000000000000     
   1433.9120326443244        0.0000000000000000        0.0000000000000000     
   1433.6429933891236        0.0000000000000000        0.0000000000000000     
   1433.3592811604155        0.0000000000000000        0.0000000000000000     
   1433.0620408566649        0.0000000000000000        0.0000000000000000     
   1432.7524698037689        0.0000000000000000        0.0000000000000000     
   1432.4318126455719        0.0000000000000000        0.0000000000000000     
   1432.1013560701324        0.0000000000000000        0.0000000000000000     
   1431.7624233982849        0.0000000000000000        0.0000000000000000     
   1431.4163690610596        0.0000000000000000        0.0000000000000000     
   1431.0645729924186        0.0000000000000000        0.0000000000000000     
   1430.7084349634506        0.0000000000000000        0.0000000000000000     
   1430.3493688836854       -0.0000000000000000        0.0000000000000000     
   1429.9887970945808       -0.0000000000000000        0.0000000000000000     
   1429.6281446794935       -0.0000000000000000        0.0000000000000000     
   1429.2688338135636       -0.0000000000000000        0.0000000000000000     
   1428.9122781759766       -0.0000000000000000        0.0000000000000000     
   1428.5598774460370       -0.0000000000000000        0.0000000000000000     
   1428.2130119033493       -0.0000000000000000        0.0000000000000000     
   1427.8730371512518       -0.0000000000000000        0.0000000000000000     
   1427.5412789814450       -0.0000000000000000        0.0000000000000000     
   1427.2190283965374       -0.0000000000000000        0.0000000000000000     
   1426.9075368060139       -0.0000000000000000        0.0000000000000000     
   1426.6080114099143       -0.0000000000000000        0.0000000000000000     
   1426.3216107833118       -0.0000000000000000        0.0000000000000000     
   1426.0494406735268       -0.0000000000000000        0.0000000000000000     
   1425.7925500208812       -0.0000000000000000        0.0000000000000000     
   1425.5519272127133       -0.0000000000000000        0.0000000000000000     
   1425.3284965793675       -0.0000000000000000        0.0000000000000000     
   1425.1231151398824       -0.0000000000000000        0.0000000000000000     
   1424.9365696042039       -0.0000000000000000        0.0000000000000000     
   1424.7695736379121       -0.0000000000000000        0.0000000000000000     
   1424.6227653946344       -0.0000000000000000        0.0000000000000000     
   1424.4967053206344       -0.0000000000000000        0.0000000000000000     
   1424.3918742353540       -0.0000000000000000        0.0000000000000000     
   1424.3086716911087       -0.0000000000000000        0.0000000000000000     
   1424.2474146145441       -0.0000000000000000        0.0000000000000000     
   1424.2083362319588       -0.0000000000000000        0.0000000000000000     
   1424.1915852800958       -0.0000000000000000        0.0000000000000000     
   1424.1972255035710       -0.0000000000000000        0.0000000000000000     
   1424.2252354396580       -0.0000000000000000        0.0000000000000000     
   1424.2755084907412       -0.0000000000000000        0.0000000000000000     
   1424.3478532843262       -0.0000000000000000        0.0000000000000000     
   1424.4419943200985       -0.0000000000000000        0.0000000000000000     
   1424.5575729030895       -0.0000000000000000        0.0000000000000000     
   1424.6941483615562       -0.0000000000000000        0.0000000000000000     
   1424.8511995477393       -0.0000000000000000        0.0000000000000000     
   1425.0281266191257       -0.0000000000000000        0.0000000000000000     
   1425.2242530973326       -0.0000000000000000        0.0000000000000000     
   1425.4388282011239       -0.0000000000000000        0.0000000000000000     
   1425.6710294494219       -0.0000000000000000        0.0000000000000000     
   1425.9199655294997       -0.0000000000000000        0.0000000000000000     
   1426.1846794247685       -0.0000000000000000        0.0000000000000000     
   1426.4641517957689       -0.0000000000000000        0.0000000000000000     
   1426.7573046070775       -0.0000000000000000        0.0000000000000000     
   1427.0630049919334       -0.0000000000000000        0.0000000000000000     
   1427.3800693453552       -0.0000000000000000        0.0000000000000000     
   1427.7072676354969       -0.0000000000000000        0.0000000000000000     
   1428.0433279218671       -0.0000000000000000        0.0000000000000000     
   1428.3869410679094       -0.0000000000000000        0.0000000000000000     
   1428.7367656342406       -0.0000000000000000        0.0000000000000000     
   1429.0914329376603       -0.0000000000000000        0.0000000000000000     
   1429.4495522598015       -0.0000000000000000       -0.0000000000000000     
   1429.8097161880980       -0.0000000000000000       -0.0000000000000000     
   1430.1705060705026       -0.0000000000000000       -0.0000000000000000     
   1430.5304975642384       -0.0000000000000000       -0.0000000000000000     
   1430.8882662576987       -0.0000000000000000       -0.0000000000000000     
   1431.2423933435362       -0.0000000000000000       -0.0000000000000000     
   1431.5914713199836       -0.0000000000000000       -0.0000000000000000     
   1431.9341096965086       -0.0000000000000000       -0.0000000000000000     
   1432.2689406791110       -0.0000000000000000       -0.0000000000000000     
   1432.5946248098910       -0.0000000000000000       -0.0000000000000000     
   1432.9098565349414       -0.0000000000000000       -0.0000000000000000     
   1433.2133696742731       -0.0000000000000000       -0.0000000000000000     
   1433.5039427672184       -0.0000000000000000       -0.0000000000000000     
   1433.7804042667394       -0.0000000000000000       -0.0000000000000000     
   1434.0416375562174       -0.0000000000000000       -0.0000000000000000     
   1434.2865857626359       -0.0000000000000000       -0.0000000000000000     
   1434.5142563406346       -0.0000000000000000       -0.0000000000000000     
   1434.7237254026693       -0.0000000000000000       -0.0000000000000000     
   1434.9141417714825       -0.0000000000000000       -0.0000000000000000     
   1435.0847307322606       -0.0000000000000000       -0.0000000000000000     
   1435.2347974632391       -0.0000000000000000       -0.0000000000000000     
   1435.3637301250972       -0.0000000000000000       -0.0000000000000000     
   1435.4710025912025       -0.0000000000000000       -0.0000000000000000     
   1435.5561768027424       -0.0000000000000000       -0.0000000000000000     
   1435.6189047348171       -0.0000000000000000       -0.0000000000000000     
   1435.6589299618006       -0.0000000000000000       -0.0000000000000000     
   1435.6760888126066       -0.0000000000000000       -0.0000000000000000     
   1435.6703111089107       -0.0000000000000000       -0.0000000000000000     
   1435.6416204818875       -0.0000000000000000       -0.0000000000000000     
   1435.5901342655422       -0.0000000000000000       -0.0000000000000000     
   1435.5160629672851       -0.0000000000000000       -0.0000000000000000     
   1435.4197093189389       -0.0000000000000000       -0.0000000000000000     
   1435.3014669139059       -0.0000000000000000       -0.0000000000000000     
   1435.1618184386414       -0.0000000000000000       -0.0000000000000000     
   1435.0013335090175       -0.0000000000000000       -0.0000000000000000     
   1434.8206661243821       -0.0000000000000000       -0.0000000000000000     
   1434.6205517542962       -0.0000000000000000       -0.0000000000000000     
   1434.4018040749324       -0.0000000000000000       -0.0000000000000000     
   1434.1653113739476       -0.0000000000000000       -0.0000000000000000     
   1433.9120326443226       -0.0000000000000000       -0.0000000000000000     
   1433.6429933891218       -0.0000000000000000       -0.0000000000000000     
   1433.3592811604135       -0.0000000000000000       -0.0000000000000000     
   1433.0620408566624       -0.0000000000000000       -0.0000000000000000     
   1432.7524698037671       -0.0000000000000000       -0.0000000000000000     
   1432.4318126455696       -0.0000000000000000       -0.0000000000000000     
   1432.1013560701306       -0.0000000000000000       -0.0000000000000000     
   1431.7624233982829       -0.0000000000000000       -0.0000000000000000     
   1431.4163690610571       -0.0000000000000000       -0.0000000000000000     
   1431.0645729924156       -0.0000000000000000       -0.0000000000000000     
   1430.7084349634486       -0.0000000000000000       -0.0000000000000000     
   1430.3493688836834        0.0000000000000000       -0.0000000000000000     
   1429.9887970945779        0.0000000000000000       -0.0000000000000000     
   1429.6281446794910        0.0000000000000000       -0.0000000000000000     
   1429.2688338135613        0.0000000000000000       -0.0000000000000000     
   1428.9122781759741        0.0000000000000000       -0.0000000000000000     
   1428.5598774460348        0.0000000000000000       -0.0000000000000000     
   1428.2130119033470        0.0000000000000000       -0.0000000000000000     
   1427.8730371512497        0.0000000000000000       -0.0000000000000000     
   1427.5412789814429        0.0000000000000000       -0.0000000000000000     
   1427.2190283965351        0.0000000000000000       -0.0000000000000000     
   1426.9075368060121        0.0000000000000000       -0.0000000000000000     
   1426.6080114099123        0.0000000000000000       -0.0000000000000000     
   1426.3216107833100        0.0000000000000000       -0.0000000000000000     
   1426.0494406735252        0.0000000000000000       -0.0000000000000000     
   1425.7925500208794        0.0000000000000000       -0.0000000000000000     
   1425.5519272127112        0.0000000000000000       -0.0000000000000000     
   1425.3284965793659        0.0000000000000000       -0.0000000000000000     
   1425.1231151398808        0.0000000000000000       -0.0000000000000000     
   1424.9365696042030        0.0000000000000000       -0.0000000000000000     
   1424.7695736379112        0.0000000000000000       -0.0000000000000000     
   1424.6227653946339        0.0000000000000000       -0.0000000000000000     
   1424.4967053206337        0.0000000000000000       -0.0000000000000000     
   1424.3918742353533        0.0000000000000000       -0.0000000000000000     
   1424.3086716911077        0.0000000000000000       -0.0000000000000000     
   1424.2474146145441        0.0000000000000000       -0.0000000000000000     
   1424.2083362319588        0.0000000000000000       -0.0000000000000000     
   1424.1915852800958        0.0000000000000000       -0.0000000000000000     
   1424.1972255035707        0.0000000000000000       -0.0000000000000000     
   1424.2252354396583        0.0000000000000000       -0.0000000000000000     
   1424.2755084907424        0.0000000000000000       -0.0000000000000000     
   1424.3478532843269        0.0000000000000000       -0.0000000000000000     
   1424.4419943200992        0.0000000000000000       -0.0000000000000000     
   1424.5575729030902        0.0000000000000000       -0.0000000000000000     
   1424.6941483615572        0.0000000000000000       -0.0000000000000000     
   1424.8511995477402        0.0000000000000000       -0.0000000000000000     
   1425.0281266191264        0.0000000000000000       -0.0000000000000000     
   1425.2242530973342        0.0000000000000000       -0.0000000000000000     
   1425.4388282011259        0.0000000000000000       -0.0000000000000000     
   1425.6710294494237        0.0000000000000000       -0.0000000000000000     
   1425.9199655295010        0.0000000000000000       -0.0000000000000000     
   1426.1846794247704        0.0000000000000000       -0.0000000000000000     
   1426.4641517957702        0.0000000000000000       -0.0000000000000000     
   1426.7573046070795        0.0000000000000000       -0.0000000000000000     
   1427.0630049919357        0.0000000000000000       -0.0000000000000000     
   1427.3800693453575        0.0000000000000000       -0.0000000000000000     
   1427.7072676354990        0.0000000000000000       -0.0000000000000000     
   1428.0433279218694        0.0000000000000000       -0.0000000000000000     
   1428.3869410679117        0.0000000000000000       -0.0000000000000000     
   1428.7367656342431        0.0000000000000000       -0.0000000000000000     
   1429.0914329376628        0.0000000000000000       -0.0000000000000000     
   1429.4495522598040        0.0000000000000000        0.0000000000000000     
   1442.7021458138033        45.338741455661150        0.0000000000000000     
   1442.7619188182782        45.318247039102005        1.4241832880692240     
   1442.7851887771299        45.251880386600746        2.8470069971251335     
   1442.7717791315968        45.139705119579368        4.2669584250264547     
   1442.7217962550003        44.981844607763172        5.6825284706585233     
   1442.6356206559317        44.778481414918517        7.0922147174849934     
   1442.5138952288141        44.529856471867788        8.4945244253378256     
   1442.3575107670313        44.236267994860576        9.8879774013875803     
   1442.1675889917385        43.898070171212645        11.271108724328405     
   1441.9454633823925        43.515671637388472        12.642471299389557     
   1441.6926581223236        43.089533777329592        14.000638225748471     
   1441.4108654939644        42.620168870774336        15.344204962162017     
   1441.1019220733367        42.108138122547082        16.671791281040694     
   1440.7677840820527        41.554049604309192        17.982043005652269     
   1440.4105022573935        40.958556140072524        19.273633529546331     
   1440.0321965972637        40.322353165909547        20.545265121534740     
   1439.6350313272653        39.646176592798973        21.795670023549054     
   1439.2211904222672        38.930800699484685        23.023611352338467     
   1438.7928539951749        38.177036079669307        24.227883819199327     
   1438.3521758417394        37.385727664896827        25.407314284679298     
   1437.9012624027889        36.557752841186129        26.560762167432848     
   1437.4421533749610        35.694019673953783        27.687119728090224     
   1436.9768041684101        34.795465252099611        28.785312250124775     
   1436.5070703758199        33.863054158414798        29.854298140262959     
   1436.0346943819311        32.897777069796000        30.893068970990946     
   1435.5612942073126        31.900649487191917        31.900649487195221     
   1435.0883546447767        30.872710591845124        32.876097597968190     
   1434.6172207122438        29.815022221288928        33.818504373158433     
   1434.1490934122976        28.728667955772362        34.726994062399392     
   1433.6850277567189        27.614752303365130        35.600724152171516     
   1433.2259329841279        26.474399969974748        36.438885474000585     
   1432.7725748708961        25.308755198917211        37.240702374238161     
   1432.3255800099423        24.118981163537867        38.005432953074560     
   1431.8854419091156        22.906259395686476        38.732369377569640     
   1431.4525287407589        21.671789232607352        39.420838270617864     
   1431.0270925569537        20.416787264999094        40.070201174958157     
   1430.6092797708534        19.142486769607320        40.679855088653987     
   1430.1991426937018        17.850137110710374        41.249233065966870     
   1429.7966519094330        16.541003096202633        41.777804875272658     
   1429.4017092643996        15.216364275632834        42.265077703675431     
   1429.0141612485902        13.877514169465226        42.710596896291470     
   1428.6338125467735        12.525759420946894        43.113946716840019     
   1428.2604395431713        11.162418864229444        43.474751115207582     
   1427.8938035714430        9.7888225047484383        43.792674487061298     
   1427.5336637128121        8.4063104102511321        44.067422410381084     
   1427.1797889588322        7.0162315132231177        44.298742343949947     
   1426.8319695714235        5.6199423277415139        44.486424273378930     
   1426.4900274910440        4.2188055859230138        44.630301291119046     
   1426.1538256639349        2.8141888010901397        44.730250098101664     
   1425.8232761809684        1.4074627665066115        44.786191416111066     
   1425.4983471432606       -4.6326401143991643E-012   44.798090301684390     
   1425.1790681931557       -1.4068268540771551        44.765956354209386     
   1424.8655346728287       -2.8116466531105231        44.689843812892342     
   1424.5579103964271       -4.2130914020022185        44.569851539349386     
   1424.2564290447128       -5.6097979032273209        44.406122884673280     
   1423.9613942133767       -7.0004093983104134        44.198845441895209     
   1423.6731781671383       -8.3835771881610626        43.948250686745226     
   1423.3922193709927       -9.7579622204574914        43.654613511464781     
   1423.1190188873989       -11.122236633233468        43.318251658103613     
   1422.8541357433432       -12.475085245015938        42.939525059198360     
   1422.5981813840526       -13.815206983236401        42.518835094957282     
   1422.3518133403347       -15.141316244153545        42.056623777038361     
   1422.1157282441409       -16.452144179134024        41.553372869695664     
   1421.8906543317964       -17.746439903794645        41.009602959472836     
   1421.6773435765488       -19.022971628169206        40.425872484746066     
   1421.4765635916099       -20.280527707681106        39.802776736269998     
   1421.2890894418788       -21.517917616238837        39.140946839476094     
   1421.1156954971727       -22.733972844188731        38.441048728635117     
   1420.9571474522265       -23.927547725125475        37.703782122152511     
   1420.8141946292055       -25.097520196649782        36.929879507248025     
   1420.6875626672436       -26.242792501053920        36.120105141116120     
   1420.5779466908432       -27.362291832594803        35.275254074406512     
   1420.4860050351469       -28.454970938474531        34.396151201545337     
   1420.4123535914161       -29.519808680887039        33.483650341073051     
   1420.3575608207757       -30.555810567512179        32.538633347843771     
   1420.3221434688098       -31.562009257656815        31.562009257647006     
   1420.3065629980756       -32.537465050869351        30.554713463608817     
   1420.3112227404358       -33.481266364313534        29.517706922633597     
   1420.3364657564910       -34.392530204500339        28.451975389184788     
   1420.3825733755805       -35.270402638172932        27.358528672891726     
   1420.4497643771024       -36.114059266247899        26.238399915826044     
   1420.5381947623521       -36.922705703766624        25.092644884821482     
   1420.6479580560363       -37.695578067836877        23.922341273922267     
   1420.7790860681405       -38.431943474576684        22.728588011933407     
   1420.9315500400323       -39.131100545140072        21.512504570104944     
   1421.1052620937694       -39.792379920036801        20.275230265201028     
   1421.3000769004900       -40.415144780179610        19.017923553565520     
   1421.5157934826852       -40.998791372426780        17.741761312280694     
   1421.7521570658919       -41.542749536849293        16.447938104098437     
   1422.0088608981750       -42.046483232560298        15.137665423482229     
   1422.2855479602833       -42.509491058701471        13.812170921799968     
   1422.5818124958132       -42.931306767096409        12.472697610429401     
   1422.8972012987372       -43.311499763149364        11.120503041245096     
   1423.2312147052755       -43.649675591785680        9.7568584646245640     
   1423.5833072479959       -43.945476405582397        8.3830479657112917     
   1423.9528879421814       -44.198581412712763        7.0003675801820551     
   1424.3393201875306       -44.408707302901227        5.6101243911616949     
   1424.7419212820234       -44.575608650235978        4.2136356091942249     
   1425.1599615589939       -44.699078292383987        2.8122276373010791     
   1425.5926631728514       -44.778947686472968        1.4072351231272238     
   1426.0391985731519       -44.815087242610076       -9.2687955889319487E-012
   1426.4986887206755       -44.807406636673726       -1.4081294816860943     
   1426.9702011123711       -44.755855104605267       -2.8157997315682786     
   1427.4527476943529       -44.660421720917228       -4.2216528048400006     
   1427.9452827532082       -44.521135664494174       -5.6243273962201323     
   1428.4467008854951       -44.338066474968890       -7.0224598437199193     
   1428.9558351531775       -44.111324302989232       -8.4146851441770387     
   1429.4714555387291       -43.841060157536290       -9.7996379835066190     
   1429.9922678174114       -43.527466153100804       -11.175953785509954     
   1430.5169129657811       -43.170775758970322       -12.542269783942624     
   1431.0439672245300       -42.771264052125765       -13.897226123324893     
   1431.5719429302901       -42.329247974301758       -15.239466994643299     
   1432.0992902249809       -41.845086592647959       -16.567641812606549     
   1432.6243997425725       -41.319181362158254       -17.880406441446976     
   1433.1456063618484       -40.751976386641928       -19.176424476370546     
   1433.6611940999690       -40.143958673529490       -20.454368587627915     
   1434.1694022053744       -39.495658376273006       -21.712921933784774     
   1434.6684324901889       -38.807649016565421       -22.950779650098774     
   1435.1564579217877       -38.080547677106431       -24.166650416954759     
   1435.6316324710433       -37.315015154238296       -25.359258112071338     
   1436.0921021911815       -36.511756058511757       -26.527343548680044     
   1436.5360174765590       -35.671518850169576       -27.669666300110904     
   1436.9615464254732       -34.795095795702537       -28.785006609224347     
   1437.3668892057424       -33.883322831083142       -29.872167378942361     
   1437.7502932967727       -32.937079317055932       -30.929976237799952     
   1438.1100694576926       -31.957287671992937       -31.957287672009475     
   1438.4446082483555       -30.944912868332818       -32.952985213066491     
   1438.7523969092492       -29.900961779529688       -33.915983667490096     
   1439.0320363879459       -28.826482365744383       -34.845231372948099     
   1439.2822582844108       -27.722562688215326       -35.739712462841474     
   1439.5019414755116       -26.590329744325850       -36.598449119477685     
   1439.6901281710059       -25.430948117812672       -37.420503794319139     
   1439.8460391493784       -24.245618441294674       -38.204981372509600     
   1439.9690879224397       -23.035575671285780       -38.951031258016570     
   1440.0588935827661       -21.802087179034707       -39.657849355323279     
   1440.1152920978789       -20.546450663827855       -40.324679923699691     
   1440.1383458295013       -19.269991898730680       -40.950817280695546     
   1440.1283510751168       -17.974062322036509       -41.535607332643778     
   1440.0858434521103       -16.660036490864126       -42.078448911629252     
   1440.0116009715796       -15.329309416304277       -42.578794900548559     
   1439.9066446790184       -13.983293802188847       -43.036153130523736     
   1439.7722367718782       -12.623417211861520       -43.450087037989491     
   1439.6098761388557       -11.251119189207733       -43.820216072184436     
   1439.4212913019680       -9.8678483615905126       -44.146215847473911     
   1439.2084307792809       -8.4750595532028807       -44.427818038828335     
   1438.9734509228381       -7.0742109376482221       -44.664810022793951     
   1438.7187013221853       -5.6667612582925404       -44.857034270328143     
   1438.4467078981406       -4.2541671440868649       -45.004387501837364     
   1438.1601538435862       -2.8378805471585027       -45.106819618564501     
   1437.8618585973986       -1.4193463265398802       -45.164332428036076     
   1437.5547550638089        1.4035527105505427E-011  -45.176978184522731     
   1437.2418653120221        1.4187343170157798       -45.144857968318171     
   1436.9262750096859        2.8354457691606250       -45.068119930045334     
   1436.6111068584923        4.2487384038008802       -44.946957428107623     
   1436.2994933108739        5.6572325893584283       -44.781607088784057     
   1435.9945488533999        7.0595662049406860       -44.572346819300563     
   1435.6993421452889        8.4543956003834335       -44.319493804487763     
   1435.4168682995410        9.8403963298864703       -44.023402517362186     
   1435.1500215899639        11.216263666271425       -43.684462773160718     
   1434.9015688600280        12.580712906595236       -43.303097855041514     
   1434.6741238994341        13.932479483344595       -42.879762737873328     
   1434.4701230418937        15.270318898649755       -42.414942434312536     
   1434.2918022232132        16.593006501850304       -41.909150484757411     
   1434.1411757227161        17.899337133271448       -41.362927609826457     
   1434.0200167936407        19.188124659197904       -40.776840540784818     
   1433.9298403696557        20.458201424736473       -40.151481039894314     
   1433.8718880153212        21.708417652514353       -39.487465119048586     
   1433.8471152682928        22.937640815961277       -38.785432461325058     
   1433.8561815005405        24.144755016255701       -38.046046046303047     
   1433.8994424048003        25.328660391883290       -37.269991976207315     
   1433.9769451910406        26.488272589156534       -36.457979496200267     
   1434.0884265557947        27.622522320992026       -35.610741198506503     
   1434.2333134648734        28.730355039742491       -34.729033396567736     
   1434.4107267670454        29.810730747956754       -33.813636652134591     
   1434.6194876328464        30.862623968607579       -32.865356435158866     
   1434.8581267885916        31.885023893616079       -31.885023893592987     
   1435.1248964909603        32.876934726435870       -30.873496707782436     