 VARIABLES = "x_1", "x_2", "x_3"
 ZONE F = POINT , I =         201  , J =         101
   480.57418132409282        0.0000000000000000        0.0000000000000000     
   480.57418132409282        0.0000000000000000        0.0000000000000000     
   480.57418132409282        0.0000000000000000        0.0000000000000000     
   480.57418132409282        0.0000000000000000        0.0000000000000000     
   480.57418132409282        0.0000000000000000        0.0000000000000000     
   480.57418132409282        0.0000000000000000        0.0000000000000000     
   480.57418132409282        0.0000000000000000        0.0000000000000000     
   480.57418132409282        0.0000000000000000        0.0000000000000000     
   480.57418132409282        0.0000000000000000        0.0000000000000000     
   480.57418132409282        0.0000000000000000        0.0000000000000000     
   480.57418132409282        0.0000000000000000        0.0000000000000000     
   480.57418132409282        0.0000000000000000        0.0000000000000000     
   480.57418132409282        0.0000000000000000        0.0000000000000000     
   480.57418132409282        0.0000000000000000        0.0000000000000000     
   480.57418132409282        0.0000000000000000        0.0000000000000000     
   480.57418132409282        0.0000000000000000        0.0000000000000000     
   480.57418132409282        0.0000000000000000        0.0000000000000000     
   480.57418132409282        0.0000000000000000        0.0000000000000000     
   480.57418132409282        0.0000000000000000        0.0000000000000000     
   480.57418132409282        0.0000000000000000        0.0000000000000000     
   480.57418132409282        0.0000000000000000        0.0000000000000000     
   480.57418132409282        0.0000000000000000        0.0000000000000000     
   480.57418132409282        0.0000000000000000        0.0000000000000000     
   480.57418132409282        0.0000000000000000        0.0000000000000000     
   480.57418132409282        0.0000000000000000        0.0000000000000000     
   480.57418132409282        0.0000000000000000        0.0000000000000000     
   480.57418132409282        0.0000000000000000        0.0000000000000000     
   480.57418132409282        0.0000000000000000        0.0000000000000000     
   480.57418132409282        0.0000000000000000        0.0000000000000000     
   480.57418132409282        0.0000000000000000        0.0000000000000000     
   480.57418132409282        0.0000000000000000        0.0000000000000000     
   480.57418132409282        0.0000000000000000        0.0000000000000000     
   480.57418132409282        0.0000000000000000        0.0000000000000000     
   480.57418132409282        0.0000000000000000        0.0000000000000000     
   480.57418132409282        0.0000000000000000        0.0000000000000000     
   480.57418132409282        0.0000000000000000        0.0000000000000000     
   480.57418132409282        0.0000000000000000        0.0000000000000000     
   480.57418132409282        0.0000000000000000        0.0000000000000000     
   480.57418132409282        0.0000000000000000        0.0000000000000000     
   480.57418132409282        0.0000000000000000        0.0000000000000000     
   480.57418132409282        0.0000000000000000        0.0000000000000000     
   480.57418132409282        0.0000000000000000        0.0000000000000000     
   480.57418132409282        0.0000000000000000        0.0000000000000000     
   480.57418132409282        0.0000000000000000        0.0000000000000000     
   480.57418132409282        0.0000000000000000        0.0000000000000000     
   480.57418132409282        0.0000000000000000        0.0000000000000000     
   480.57418132409282        0.0000000000000000        0.0000000000000000     
   480.57418132409282        0.0000000000000000        0.0000000000000000     
   480.57418132409282        0.0000000000000000        0.0000000000000000     
   480.57418132409282        0.0000000000000000        0.0000000000000000     
   480.57418132409282       -0.0000000000000000        0.0000000000000000     
   480.57418132409282       -0.0000000000000000        0.0000000000000000     
   480.57418132409282       -0.0000000000000000        0.0000000000000000     
   480.57418132409282       -0.0000000000000000        0.0000000000000000     
   480.57418132409282       -0.0000000000000000        0.0000000000000000     
   480.57418132409282       -0.0000000000000000        0.0000000000000000     
   480.57418132409282       -0.0000000000000000        0.0000000000000000     
   480.57418132409282       -0.0000000000000000        0.0000000000000000     
   480.57418132409282       -0.0000000000000000        0.0000000000000000     
   480.57418132409282       -0.0000000000000000        0.0000000000000000     
   480.57418132409282       -0.0000000000000000        0.0000000000000000     
   480.57418132409282       -0.0000000000000000        0.0000000000000000     
   480.57418132409282       -0.0000000000000000        0.0000000000000000     
   480.57418132409282       -0.0000000000000000        0.0000000000000000     
   480.57418132409282       -0.0000000000000000        0.0000000000000000     
   480.57418132409282       -0.0000000000000000        0.0000000000000000     
   480.57418132409282       -0.0000000000000000        0.0000000000000000     
   480.57418132409282       -0.0000000000000000        0.0000000000000000     
   480.57418132409282       -0.0000000000000000        0.0000000000000000     
   480.57418132409282       -0.0000000000000000        0.0000000000000000     
   480.57418132409282       -0.0000000000000000        0.0000000000000000     
   480.57418132409282       -0.0000000000000000        0.0000000000000000     
   480.57418132409282       -0.0000000000000000        0.0000000000000000     
   480.57418132409282       -0.0000000000000000        0.0000000000000000     
   480.57418132409282       -0.0000000000000000        0.0000000000000000     
   480.57418132409282       -0.0000000000000000        0.0000000000000000     
   480.57418132409282       -0.0000000000000000        0.0000000000000000     
   480.57418132409282       -0.0000000000000000        0.0000000000000000     
   480.57418132409282       -0.0000000000000000        0.0000000000000000     
   480.57418132409282       -0.0000000000000000        0.0000000000000000     
   480.57418132409282       -0.0000000000000000        0.0000000000000000     
   480.57418132409282       -0.0000000000000000        0.0000000000000000     
   480.57418132409282       -0.0000000000000000        0.0000000000000000     
   480.57418132409282       -0.0000000000000000        0.0000000000000000     
   480.57418132409282       -0.0000000000000000        0.0000000000000000     
   480.57418132409282       -0.0000000000000000        0.0000000000000000     
   480.57418132409282       -0.0000000000000000        0.0000000000000000     
   480.57418132409282       -0.0000000000000000        0.0000000000000000     
   480.57418132409282       -0.0000000000000000        0.0000000000000000     
   480.57418132409282       -0.0000000000000000        0.0000000000000000     
   480.57418132409282       -0.0000000000000000        0.0000000000000000     
   480.57418132409282       -0.0000000000000000        0.0000000000000000     
   480.57418132409282       -0.0000000000000000        0.0000000000000000     
   480.57418132409282       -0.0000000000000000        0.0000000000000000     
   480.57418132409282       -0.0000000000000000        0.0000000000000000     
   480.57418132409282       -0.0000000000000000        0.0000000000000000     
   480.57418132409282       -0.0000000000000000        0.0000000000000000     
   480.57418132409282       -0.0000000000000000        0.0000000000000000     
   480.57418132409282       -0.0000000000000000        0.0000000000000000     
   480.57418132409282       -0.0000000000000000        0.0000000000000000     
   480.57418132409282       -0.0000000000000000       -0.0000000000000000     
   480.57418132409282       -0.0000000000000000       -0.0000000000000000     
   480.57418132409282       -0.0000000000000000       -0.0000000000000000     
   480.57418132409282       -0.0000000000000000       -0.0000000000000000     
   480.57418132409282       -0.0000000000000000       -0.0000000000000000     
   480.57418132409282       -0.0000000000000000       -0.0000000000000000     
   480.57418132409282       -0.0000000000000000       -0.0000000000000000     
   480.57418132409282       -0.0000000000000000       -0.0000000000000000     
   480.57418132409282       -0.0000000000000000       -0.0000000000000000     
   480.57418132409282       -0.0000000000000000       -0.0000000000000000     
   480.57418132409282       -0.0000000000000000       -0.0000000000000000     
   480.57418132409282       -0.0000000000000000       -0.0000000000000000     
   480.57418132409282       -0.0000000000000000       -0.0000000000000000     
   480.57418132409282       -0.0000000000000000       -0.0000000000000000     
   480.57418132409282       -0.0000000000000000       -0.0000000000000000     
   480.57418132409282       -0.0000000000000000       -0.0000000000000000     
   480.57418132409282       -0.0000000000000000       -0.0000000000000000     
   480.57418132409282       -0.0000000000000000       -0.0000000000000000     
   480.57418132409282       -0.0000000000000000       -0.0000000000000000     
   480.57418132409282       -0.0000000000000000       -0.0000000000000000     
   480.57418132409282       -0.0000000000000000       -0.0000000000000000     
   480.57418132409282       -0.0000000000000000       -0.0000000000000000     
   480.57418132409282       -0.0000000000000000       -0.0000000000000000     
   480.57418132409282       -0.0000000000000000       -0.0000000000000000     
   480.57418132409282       -0.0000000000000000       -0.0000000000000000     
   480.57418132409282       -0.0000000000000000       -0.0000000000000000     
   480.57418132409282       -0.0000000000000000       -0.0000000000000000     
   480.57418132409282       -0.0000000000000000       -0.0000000000000000     
   480.57418132409282       -0.0000000000000000       -0.0000000000000000     
   480.57418132409282       -0.0000000000000000       -0.0000000000000000     
   480.57418132409282       -0.0000000000000000       -0.0000000000000000     
   480.57418132409282       -0.0000000000000000       -0.0000000000000000     
   480.57418132409282       -0.0000000000000000       -0.0000000000000000     
   480.57418132409282       -0.0000000000000000       -0.0000000000000000     
   480.57418132409282       -0.0000000000000000       -0.0000000000000000     
   480.57418132409282       -0.0000000000000000       -0.0000000000000000     
   480.57418132409282       -0.0000000000000000       -0.0000000000000000     
   480.57418132409282       -0.0000000000000000       -0.0000000000000000     
   480.57418132409282       -0.0000000000000000       -0.0000000000000000     
   480.57418132409282       -0.0000000000000000       -0.0000000000000000     
   480.57418132409282       -0.0000000000000000       -0.0000000000000000     
   480.57418132409282       -0.0000000000000000       -0.0000000000000000     
   480.57418132409282       -0.0000000000000000       -0.0000000000000000     
   480.57418132409282       -0.0000000000000000       -0.0000000000000000     
   480.57418132409282       -0.0000000000000000       -0.0000000000000000     
   480.57418132409282       -0.0000000000000000       -0.0000000000000000     
   480.57418132409282       -0.0000000000000000       -0.0000000000000000     
   480.57418132409282       -0.0000000000000000       -0.0000000000000000     
   480.57418132409282       -0.0000000000000000       -0.0000000000000000     
   480.57418132409282       -0.0000000000000000       -0.0000000000000000     
   480.57418132409282        0.0000000000000000       -0.0000000000000000     
   480.57418132409282        0.0000000000000000       -0.0000000000000000     
   480.57418132409282        0.0000000000000000       -0.0000000000000000     
   480.57418132409282        0.0000000000000000       -0.0000000000000000     
   480.57418132409282        0.0000000000000000       -0.0000000000000000     
   480.57418132409282        0.0000000000000000       -0.0000000000000000     
   480.57418132409282        0.0000000000000000       -0.0000000000000000     
   480.57418132409282        0.0000000000000000       -0.0000000000000000     
   480.57418132409282        0.0000000000000000       -0.0000000000000000     
   480.57418132409282        0.0000000000000000       -0.0000000000000000     
   480.57418132409282        0.0000000000000000       -0.0000000000000000     
   480.57418132409282        0.0000000000000000       -0.0000000000000000     
   480.57418132409282        0.0000000000000000       -0.0000000000000000     
   480.57418132409282        0.0000000000000000       -0.0000000000000000     
   480.57418132409282        0.0000000000000000       -0.0000000000000000     
   480.57418132409282        0.0000000000000000       -0.0000000000000000     
   480.57418132409282        0.0000000000000000       -0.0000000000000000     
   480.57418132409282        0.0000000000000000       -0.0000000000000000     
   480.57418132409282        0.0000000000000000       -0.0000000000000000     
   480.57418132409282        0.0000000000000000       -0.0000000000000000     
   480.57418132409282        0.0000000000000000       -0.0000000000000000     
   480.57418132409282        0.0000000000000000       -0.0000000000000000     
   480.57418132409282        0.0000000000000000       -0.0000000000000000     
   480.57418132409282        0.0000000000000000       -0.0000000000000000     
   480.57418132409282        0.0000000000000000       -0.0000000000000000     
   480.57418132409282        0.0000000000000000       -0.0000000000000000     
   480.57418132409282        0.0000000000000000       -0.0000000000000000     
   480.57418132409282        0.0000000000000000       -0.0000000000000000     
   480.57418132409282        0.0000000000000000       -0.0000000000000000     
   480.57418132409282        0.0000000000000000       -0.0000000000000000     
   480.57418132409282        0.0000000000000000       -0.0000000000000000     
   480.57418132409282        0.0000000000000000       -0.0000000000000000     
   480.57418132409282        0.0000000000000000       -0.0000000000000000     
   480.57418132409282        0.0000000000000000       -0.0000000000000000     
   480.57418132409282        0.0000000000000000       -0.0000000000000000     
   480.57418132409282        0.0000000000000000       -0.0000000000000000     
   480.57418132409282        0.0000000000000000       -0.0000000000000000     
   480.57418132409282        0.0000000000000000       -0.0000000000000000     
   480.57418132409282        0.0000000000000000       -0.0000000000000000     
   480.57418132409282        0.0000000000000000       -0.0000000000000000     
   480.57418132409282        0.0000000000000000       -0.0000000000000000     
   480.57418132409282        0.0000000000000000       -0.0000000000000000     
   480.57418132409282        0.0000000000000000       -0.0000000000000000     
   480.57418132409282        0.0000000000000000       -0.0000000000000000     
   480.57418132409282        0.0000000000000000       -0.0000000000000000     
   480.57418132409282        0.0000000000000000       -0.0000000000000000     
   480.57418132409282        0.0000000000000000       -0.0000000000000000     
   480.57418132409282        0.0000000000000000       -0.0000000000000000     
   480.57418132409282        0.0000000000000000       -0.0000000000000000     
   480.57418132409282        0.0000000000000000       -0.0000000000000000     
   480.57418132409282        0.0000000000000000        0.0000000000000000     
   484.73323113424260        15.233355481678934        0.0000000000000000     
   483.61091182498774        15.190585838889634       0.47738339192733958     
   482.49604006728038        15.133128106644163       0.95209571933643511     
   481.38962598349866        15.061138621382568        1.4236967689699105     
   480.29263896089373        14.974785095832052        1.8917552935206337     
   479.20600745336549        14.874246130780648        2.3558491486732502     
   478.13061893582835        14.759710742779719        2.8155654059804012     
   477.06732000561777        14.631377908612748        3.2705004438514758     
   476.01691662499854        14.489456127146516        3.7202600189142530     
   474.98017449848635        14.334162998967969        4.1644593199733935     
   473.95781957838398        14.165724824007155        4.6027230067356690     
   472.95053869166571        13.984376217154919        5.0346852354015672     
   471.95898028112458        13.790359741705158        5.4599896731379776     
   470.98375525349257        13.583925560285051        5.8782895033482907     
   470.02543792710640        13.365331102785456        6.2892474235464606     
   469.08456707155904        13.134840750666260        6.6925356375214804     
   468.16164703169233        12.892725536889742        7.0878358433502218     
   467.25714892822850        12.639262860628914        7.4748392186811028     
   466.37151192730499        12.374736215807168        7.8532464045703207     
   465.50514457117134        12.099434932450857        8.2227674890076177     
   464.65842616232413        11.813653929777532        8.5831219911217822     
   463.83170819340165        11.517693479899071        8.9340388469082299     
   463.02531581521151        11.211858980990518        9.2752563971738642     
   462.23954933535629        10.896460738762194        9.6065223782492026     
   461.47468574001209        10.571813755073093        9.9275939158757591     
   460.73098023152983        10.238237522537903        10.238237522538963     
   460.00866777467104        9.8960558240074086        10.538229098385258     
   459.30796464441585        9.5455965358407280        10.827353935736223     
   458.62906996846067        9.1871914339388283        11.105406727095254     
   457.97216725768055        8.8211760015688601        11.372191576432840     
   457.33742591802297        8.4478892380790604        11.627522013436536     
   456.72500273749648        8.0676734676818196        11.871221010321779     
   456.13504334212399        7.6808741475676579        12.103121000720046     
   455.56768361495449        7.2878396747038980        12.323063900092485     
   455.02305107245155        6.8889211907676140        12.530901127059821     
   454.50126619282668        6.4844723847618928        12.726493624994001     
   454.00244369112420        6.0748492929661184        12.909711883183046     
   453.52669373614316        5.6604100959743624        13.080435956858953     
   453.07412310453304        5.2415149126787037        13.238555485368014     
   452.64483626769288        4.8185255911565301        13.383969707764471     
   452.23893640738419        4.3918054965206164        13.516587475121099     
   451.85652635626667        3.9617192958871277        13.636327258873891     
   451.49770945986677        3.5286327407088183        13.743117154552191     
   451.16259035679690        3.0929124468073566        13.836894880289352     
   450.85127567436524        2.6549256725191195        13.917607769562478     
   450.56387463702413        2.2150400954419536        13.985212757671023     
   450.30049958544237        1.7736235883357108        14.039676361533697     
   450.06126640430625        1.3310439947860018        14.080974652458893     
   449.84629485728601       0.88766890528790809        14.109093221625843     
   449.65570882793844       0.44386543444402016        14.124027138100354     
   449.48963646564351       -1.4607689479756140E-012   14.125780899299434     
   449.34821023601029      -0.44356189555392067        14.114368373912344     
   449.23156687550909      -0.88645588004003772        14.089812737380292     
   449.13984725042025       -1.3283189226198278        14.052146400132402     
   449.07319612051106       -1.7687895400143192        14.001410928870278     
   449.03176180816507       -2.2075079972503322        13.937656961286285     
   449.01569577401233       -2.6441165022604256        13.860944114691279     
   449.02515210040184       -3.0782593937229383        13.771340889113477     
   449.06028688436720       -3.5095833215836061        13.668924565511945     
   449.12125754202475       -3.9377374197660995        13.553781099823938     
   449.20822202662339       -4.3623734706532948        13.426005013634041     
   449.32133796274377       -4.7831460610035625        13.285699282314646     
   449.46076169941176       -5.1997127290562251        13.132975221540329     
   449.62664728514011       -5.6117341026762659        12.967952373122367     
   449.81914536816709       -6.0188740284902940        12.790758391143946     
   450.03840202539709       -6.4207996920720145        12.601528929400585     
   450.28455752377329       -6.8171817293453829        12.400407531163104     
   450.55774501803853       -7.2076943294863343        12.187545522282802     
   450.85808918905224       -7.5920153297181825        11.963101908648900     
   451.18570482702762       -7.9698263025104144        11.727243278987160     
   451.54069536426510       -8.3408126358050385        11.480143713956076     
   451.92315136213608       -8.7046636070071202        11.221984702452357     
   452.33314895726204       -9.0610724515860994        10.952955065981204     
   452.77074827201272       -9.4097364272407251        10.673250891879386     
   453.23599179461797       -9.7503568746816089        10.383075476099995     
   453.72890273437037       -10.082639276181322        10.082639276178190     
   454.24948335754311       -10.406293313129995        9.7721598748965839     
   454.79771330983471       -10.721032923915770        9.4518619550589893     
   455.37354793129469       -11.026576363521041        9.1219772856611581     
   455.97691656985660       -11.322646266287911        8.7827447196189681     
   456.60772089975109       -11.608969713357789        8.4344102030777020     
   457.26583325123511       -11.885278306330573        8.0772267961825364     
   457.95109495821833       -12.151308248716733        7.7114547050401345     
   458.66331473051451       -12.406800436770860        7.3373613244456495     
   459.40226705759471       -12.651500561296963        6.9552212907895852     
   460.16769065085185       -12.885159222003100        6.5653165443955626     
   460.95928693151490       -13.107532055955739        6.1679364003745105     
   461.77671857147988       -13.318379881641846        5.7633776269142825     
   462.61960809443076       -13.517468860088828        5.3519445297573220     
   463.48753654472233       -13.704570674418472        4.9339490414542491     
   464.38004223158526       -13.879462729121560        4.5097108138192619     
   465.29661955627182       -14.041928370233572        4.0795573118558135     
   466.23671792981406       -14.191757127470146        3.6438239072690979     
   467.19974078907632       -14.328744979242583        3.2028539695373817     
   468.18504471878981       -14.452694641320285        2.7569989523785394     
   469.19193868720407       -14.563415879737281        2.3066184733227182     
   470.21968340293307       -14.660725848356419        1.8520803839886995     
   471.26749080044772       -14.744449451306039        1.3937608285615295     
   472.33452366152920       -14.814419730292590       0.93204428788424676     
   473.41989537978509       -14.870478276568207       0.46732360650825816     
   474.52266987509728       -14.912475667097079       -3.0842445521744854E-012
   475.64186166456301       -14.940271924218900      -0.46951696025363648     
   476.77643609614097       -14.953736997853824      -0.94080938742173104     
   477.92530975080712       -14.952751269032765       -1.4134511476281373     
   479.08735101855501       -14.937206073271232       -1.8870079589610496     
   480.26138085303899       -14.907004242035994       -2.3610375237936827     
   481.44617370908389       -14.862060660284964       -2.8350896969439465     
   482.64045866661587       -14.802302837792295       -3.3087066921136450     
   483.84292074386593       -14.727671491707088       -3.7814233289057517     
   485.05220240192091       -14.638121137536604       -4.2527673225531162     
   486.26690524186540       -14.533620685496805       -4.7222596182995638     
   487.48559189487224       -14.414154038936850       -5.1894147721556827     
   488.70678810466586       -14.279720691322972       -5.6537413795069522     
   489.92898500078456       -14.130336318062897       -6.1147425527819514     
   491.15064156006832       -13.966033359269394       -6.5719164490949513     
   492.37018725271201       -13.786861589400452       -7.0247568484608713     
   493.58602486815761       -13.592888669579713       -7.4727537828440882     
   494.79653351498206       -13.384200678294345       -7.9153942159473312     
   496.00007178782522       -13.160902616092214       -8.3521627732758876     
   497.19498109328339       -12.923118879857437       -8.7825425216278905     
   498.37958912558429       -12.670993702235535       -9.2060157967670229     
   499.55221348176224       -12.404691551807469       -9.6220650776322625     
   500.71116540500498       -12.124397489678126       -10.030173905034980     
   501.85475364379641       -11.830317478248558       -10.429827842388480     
   502.98128841352559       -11.522678638085079       -10.820515475615430     
   504.08908544631311       -11.201729448980521       -11.201729448986317     
   505.17647011394354       -10.867739891523760       -11.572967533261940     
   506.24178160806088       -10.521001525753450       -11.933733722150022     
   507.28337716107012       -10.161827503766988       -12.283539352742133     
   508.29963629062797       -9.7905525134872082       -12.621904245278440     
   509.28896505011915       -9.4075326511530708       -12.948357857296658     
   510.24980026714417       -9.0131452204947831       -13.262440446962136     
   511.18061375178229       -8.6077884569759355       -13.563704240150873     
   512.07991645626566       -8.1918811759307513       -13.851714595671140     
   512.94626256766867       -7.7658623438914169       -14.126051162862074     
   513.77825351532374       -7.3301905728828052       -14.386309025704556     
   514.57454187490066       -6.8853435379577972       -14.632099827519927     
   515.33383515142600       -6.4318173187486130       -14.863052870319157     
   516.05489942397992       -5.9701256663166609       -15.078816182897938     
   516.73656283538719       -5.5007991970875398       -15.279057551854134     
   517.37771891089972       -5.0243845161573804       -15.463465509831044     
   517.97732969065783       -4.5414432727439245       -15.631750275464160     
   518.53442866160538       -4.0525511510291530       -15.783644639727800     
   519.04812347550046       -3.5582968000921809       -15.918904793640944     
   519.51759844073126       -3.0592807070606844       -16.037311092595758     
   519.94211677676697       -2.5561140180086674       -16.138668752915674     
   520.32102262126887       -2.0494173114978302       -16.222808476629158     
   520.65374278113791       -1.5398193299923180       -16.289587000857829     
   520.93978822006159       -1.0279556746719387       -16.338887568658880     
   521.17875527645617      -0.51446746942286792       -16.370620318628788     
   521.37032660705324        5.0903851316430032E-012  -16.384722591063213     
   521.51427185274417       0.51479866551922071       -16.381159148972966     
   521.61044802468575        1.0292790686088635       -16.359922312773321     
   521.65879961003463        1.5427917583280517       -16.321032007988993     
   521.65935839805297        2.0546886889658778       -16.264535725845704     
   521.61224302867333        2.5643246110570437       -16.190508397146321     
   521.51765826693008        3.0710584494563444       -16.099052180350693     
   521.37589400796253        3.5742546623163940       -15.990296165289559     
   521.18732401853458        4.0732845749700415       -15.864395994439043     
   520.95240442222234        4.5675276829220604       -15.721533404160095     
   520.67167193657417        5.0563729184004904       -15.561915688762447     
   520.34574187163469        5.5392198752000725       -15.385775090681671     
   519.97530590025121        6.0154799868693214       -15.193368120457288     
   519.56112961155134        6.4845776536427753       -14.984974810567293     
   519.10404985985269        6.9459513138990578       -14.760897907505898     
   518.60497192209357        7.3990544563302283       -14.521462006786138     
   518.06486647759039        7.8433565694325438       -14.267012635803782     
   517.48476642458968        8.2783440253724923       -13.997915289713406     
   516.86576354863257        8.7035208957370411       -13.714554425639548     
   516.20900505823897        9.1184096971431590       -13.417332420675557     
   515.51569000379220        9.5225520651507889       -13.106668499209297     
   514.78706559581269        9.9155093553954501       -12.782997635158624     
   514.02442343900509        10.296863171323375       -12.446769434701112     
   513.22909569858086        10.666215818373804       -12.098447005042381     
   512.40245121538544        11.023190684901971       -11.738505814687903     
   511.54589158628221        11.367432550572243       -11.367432550564008     
   510.66084722610651        11.698607823367865       -10.985723977179919     