 VARIABLES = "x_1", "x_2", "x_3"
 ZONE F = POINT , I =         201  , J =         101
   188.93547240558030        0.0000000000000000        0.0000000000000000     
   189.69688229941883        0.0000000000000000        0.0000000000000000     
   190.49696636973039        0.0000000000000000        0.0000000000000000     
   191.33382485626765        0.0000000000000000        0.0000000000000000     
   192.20537071023949        0.0000000000000000        0.0000000000000000     
   193.10931952803000        0.0000000000000000        0.0000000000000000     
   194.04318000806987        0.0000000000000000        0.0000000000000000     
   195.00424520369455        0.0000000000000000        0.0000000000000000     
   195.98958487797177        0.0000000000000000        0.0000000000000000     
   196.99603929881698        0.0000000000000000        0.0000000000000000     
   198.02021484278484        0.0000000000000000        0.0000000000000000     
   199.05848180196293        0.0000000000000000        0.0000000000000000     
   200.10697480833991        0.0000000000000000        0.0000000000000000     
   201.16159630153982        0.0000000000000000        0.0000000000000000     
   202.21802346636102        0.0000000000000000        0.0000000000000000     
   203.27171905347785        0.0000000000000000        0.0000000000000000     
   204.31794646730191        0.0000000000000000        0.0000000000000000     
   205.35178945691788        0.0000000000000000        0.0000000000000000     
   206.36817667715485        0.0000000000000000        0.0000000000000000     
   207.36191129584043        0.0000000000000000        0.0000000000000000     
   208.32770570965266        0.0000000000000000        0.0000000000000000     
   209.26022129544248        0.0000000000000000        0.0000000000000000     
   210.15411296861330        0.0000000000000000        0.0000000000000000     
   211.00407814887410        0.0000000000000000        0.0000000000000000     
   211.80490955190373        0.0000000000000000        0.0000000000000000     
   212.55155104032687        0.0000000000000000        0.0000000000000000     
   213.23915558752833        0.0000000000000000        0.0000000000000000     
   213.86314424298635        0.0000000000000000        0.0000000000000000     
   214.41926484831816        0.0000000000000000        0.0000000000000000     
   214.90364914935287        0.0000000000000000        0.0000000000000000     
   215.31286689062529        0.0000000000000000        0.0000000000000000     
   215.64397547232934        0.0000000000000000        0.0000000000000000     
   215.89456380105932        0.0000000000000000        0.0000000000000000     
   216.06278907646404        0.0000000000000000        0.0000000000000000     
   216.14740542445048        0.0000000000000000        0.0000000000000000     
   216.14778350819012        0.0000000000000000        0.0000000000000000     
   216.06392051165736        0.0000000000000000        0.0000000000000000     
   215.89644018441800        0.0000000000000000        0.0000000000000000     
   215.64658294626693        0.0000000000000000        0.0000000000000000     
   215.31618636026673        0.0000000000000000        0.0000000000000000     
   214.90765657693538        0.0000000000000000        0.0000000000000000     
   214.42393161614316        0.0000000000000000        0.0000000000000000     
   213.86843757432493        0.0000000000000000        0.0000000000000000     
   213.24503901362164        0.0000000000000000        0.0000000000000000     
   212.55798490089467        0.0000000000000000        0.0000000000000000     
   211.81185151637595        0.0000000000000000        0.0000000000000000     
   211.01148374586006        0.0000000000000000        0.0000000000000000     
   210.16193611186486        0.0000000000000000        0.0000000000000000     
   209.26841479567059        0.0000000000000000        0.0000000000000000     
   208.33622176293719        0.0000000000000000        0.0000000000000000     
   207.37070194093096       -0.0000000000000000        0.0000000000000000     
   206.37719421561232       -0.0000000000000000        0.0000000000000000     
   205.36098683170133       -0.0000000000000000        0.0000000000000000     
   204.32727759699884       -0.0000000000000000        0.0000000000000000     
   203.28113912084791       -0.0000000000000000        0.0000000000000000     
   202.22748916116970       -0.0000000000000000        0.0000000000000000     
   201.17106601878163       -0.0000000000000000        0.0000000000000000     
   200.11640880386676       -0.0000000000000000        0.0000000000000000     
   199.06784230825002       -0.0000000000000000        0.0000000000000000     
   198.02946614808940       -0.0000000000000000        0.0000000000000000     
   197.00514779332877       -0.0000000000000000        0.0000000000000000     
   195.99851907074171       -0.0000000000000000        0.0000000000000000     
   195.01297571418084       -0.0000000000000000        0.0000000000000000     
   194.05167953608253       -0.0000000000000000        0.0000000000000000     
   193.11756280571163       -0.0000000000000000        0.0000000000000000     
   192.21333443950957       -0.0000000000000000        0.0000000000000000     
   191.34148763490478       -0.0000000000000000        0.0000000000000000     
   190.50430860898305       -0.0000000000000000        0.0000000000000000     
   189.70388613574224       -0.0000000000000000        0.0000000000000000     
   188.94212160879738       -0.0000000000000000        0.0000000000000000     
   188.22073938921272       -0.0000000000000000        0.0000000000000000     
   187.54129722971021       -0.0000000000000000        0.0000000000000000     
   186.90519659620529       -0.0000000000000000        0.0000000000000000     
   186.31369273500223       -0.0000000000000000        0.0000000000000000     
   185.76790435879130       -0.0000000000000000        0.0000000000000000     
   185.26882284669793       -0.0000000000000000        0.0000000000000000     
   184.81732087304002       -0.0000000000000000        0.0000000000000000     
   184.41416039622902       -0.0000000000000000        0.0000000000000000     
   184.05999995354182       -0.0000000000000000        0.0000000000000000     
   183.75540121948356       -0.0000000000000000        0.0000000000000000     
   183.50083479536389       -0.0000000000000000        0.0000000000000000     
   183.29668520575731       -0.0000000000000000        0.0000000000000000     
   183.14325508394748       -0.0000000000000000        0.0000000000000000     
   183.04076853350614       -0.0000000000000000        0.0000000000000000     
   182.98937365707451       -0.0000000000000000        0.0000000000000000     
   182.98914424642467       -0.0000000000000000        0.0000000000000000     
   183.04008063022431       -0.0000000000000000        0.0000000000000000     
   183.14210967782086       -0.0000000000000000        0.0000000000000000     
   183.29508395903912       -0.0000000000000000        0.0000000000000000     
   183.49878006165775       -0.0000000000000000        0.0000000000000000     
   183.75289607012508       -0.0000000000000000        0.0000000000000000     
   184.05704821141194       -0.0000000000000000        0.0000000000000000     
   184.41076667690305       -0.0000000000000000        0.0000000000000000     
   184.81349063313635       -0.0000000000000000        0.0000000000000000     
   185.26456243924008       -0.0000000000000000        0.0000000000000000     
   185.76322109533174       -0.0000000000000000        0.0000000000000000     
   186.30859495417678       -0.0000000000000000        0.0000000000000000     
   186.89969373828907       -0.0000000000000000        0.0000000000000000     
   187.53539991662834       -0.0000000000000000        0.0000000000000000     
   188.21445950932107       -0.0000000000000000        0.0000000000000000     
   188.93547240558519       -0.0000000000000000       -0.0000000000000000     
   189.69688229942398       -0.0000000000000000       -0.0000000000000000     
   190.49696636973582       -0.0000000000000000       -0.0000000000000000     
   191.33382485627328       -0.0000000000000000       -0.0000000000000000     
   192.20537071024532       -0.0000000000000000       -0.0000000000000000     
   193.10931952803605       -0.0000000000000000       -0.0000000000000000     
   194.04318000807612       -0.0000000000000000       -0.0000000000000000     
   195.00424520370098       -0.0000000000000000       -0.0000000000000000     
   195.98958487797830       -0.0000000000000000       -0.0000000000000000     
   196.99603929882369       -0.0000000000000000       -0.0000000000000000     
   198.02021484279163       -0.0000000000000000       -0.0000000000000000     
   199.05848180196978       -0.0000000000000000       -0.0000000000000000     
   200.10697480834682       -0.0000000000000000       -0.0000000000000000     
   201.16159630154678       -0.0000000000000000       -0.0000000000000000     
   202.21802346636795       -0.0000000000000000       -0.0000000000000000     
   203.27171905348476       -0.0000000000000000       -0.0000000000000000     
   204.31794646730876       -0.0000000000000000       -0.0000000000000000     
   205.35178945692468       -0.0000000000000000       -0.0000000000000000     
   206.36817667716150       -0.0000000000000000       -0.0000000000000000     
   207.36191129584688       -0.0000000000000000       -0.0000000000000000     
   208.32770570965889       -0.0000000000000000       -0.0000000000000000     
   209.26022129544853       -0.0000000000000000       -0.0000000000000000     
   210.15411296861910       -0.0000000000000000       -0.0000000000000000     
   211.00407814887953       -0.0000000000000000       -0.0000000000000000     
   211.80490955190885       -0.0000000000000000       -0.0000000000000000     
   212.55155104033162       -0.0000000000000000       -0.0000000000000000     
   213.23915558753271       -0.0000000000000000       -0.0000000000000000     
   213.86314424299030       -0.0000000000000000       -0.0000000000000000     
   214.41926484832163       -0.0000000000000000       -0.0000000000000000     
   214.90364914935583       -0.0000000000000000       -0.0000000000000000     
   215.31286689062770       -0.0000000000000000       -0.0000000000000000     
   215.64397547233122       -0.0000000000000000       -0.0000000000000000     
   215.89456380106071       -0.0000000000000000       -0.0000000000000000     
   216.06278907646490       -0.0000000000000000       -0.0000000000000000     
   216.14740542445074       -0.0000000000000000       -0.0000000000000000     
   216.14778350818986       -0.0000000000000000       -0.0000000000000000     
   216.06392051165656       -0.0000000000000000       -0.0000000000000000     
   215.89644018441655       -0.0000000000000000       -0.0000000000000000     
   215.64658294626497       -0.0000000000000000       -0.0000000000000000     
   215.31618636026431       -0.0000000000000000       -0.0000000000000000     
   214.90765657693240       -0.0000000000000000       -0.0000000000000000     
   214.42393161613970       -0.0000000000000000       -0.0000000000000000     
   213.86843757432106       -0.0000000000000000       -0.0000000000000000     
   213.24503901361734       -0.0000000000000000       -0.0000000000000000     
   212.55798490088998       -0.0000000000000000       -0.0000000000000000     
   211.81185151637089       -0.0000000000000000       -0.0000000000000000     
   211.01148374585463       -0.0000000000000000       -0.0000000000000000     
   210.16193611185912       -0.0000000000000000       -0.0000000000000000     
   209.26841479566457       -0.0000000000000000       -0.0000000000000000     
   208.33622176293090       -0.0000000000000000       -0.0000000000000000     
   207.37070194092453        0.0000000000000000       -0.0000000000000000     
   206.37719421560570        0.0000000000000000       -0.0000000000000000     
   205.36098683169450        0.0000000000000000       -0.0000000000000000     
   204.32727759699199        0.0000000000000000       -0.0000000000000000     
   203.28113912084098        0.0000000000000000       -0.0000000000000000     
   202.22748916116279        0.0000000000000000       -0.0000000000000000     
   201.17106601877470        0.0000000000000000       -0.0000000000000000     
   200.11640880385985        0.0000000000000000       -0.0000000000000000     
   199.06784230824312        0.0000000000000000       -0.0000000000000000     
   198.02946614808263        0.0000000000000000       -0.0000000000000000     
   197.00514779332212        0.0000000000000000       -0.0000000000000000     
   195.99851907073514        0.0000000000000000       -0.0000000000000000     
   195.01297571417444        0.0000000000000000       -0.0000000000000000     
   194.05167953607625        0.0000000000000000       -0.0000000000000000     
   193.11756280570555        0.0000000000000000       -0.0000000000000000     
   192.21333443950374        0.0000000000000000       -0.0000000000000000     
   191.34148763489910        0.0000000000000000       -0.0000000000000000     
   190.50430860897765        0.0000000000000000       -0.0000000000000000     
   189.70388613573715        0.0000000000000000       -0.0000000000000000     
   188.94212160879252        0.0000000000000000       -0.0000000000000000     
   188.22073938920809        0.0000000000000000       -0.0000000000000000     
   187.54129722970589        0.0000000000000000       -0.0000000000000000     
   186.90519659620122        0.0000000000000000       -0.0000000000000000     
   186.31369273499848        0.0000000000000000       -0.0000000000000000     
   185.76790435878789        0.0000000000000000       -0.0000000000000000     
   185.26882284669483        0.0000000000000000       -0.0000000000000000     
   184.81732087303718        0.0000000000000000       -0.0000000000000000     
   184.41416039622652        0.0000000000000000       -0.0000000000000000     
   184.05999995353966        0.0000000000000000       -0.0000000000000000     
   183.75540121948174        0.0000000000000000       -0.0000000000000000     
   183.50083479536244        0.0000000000000000       -0.0000000000000000     
   183.29668520575615        0.0000000000000000       -0.0000000000000000     
   183.14325508394660        0.0000000000000000       -0.0000000000000000     
   183.04076853350566        0.0000000000000000       -0.0000000000000000     
   182.98937365707431        0.0000000000000000       -0.0000000000000000     
   182.98914424642484        0.0000000000000000       -0.0000000000000000     
   183.04008063022476        0.0000000000000000       -0.0000000000000000     
   183.14210967782171        0.0000000000000000       -0.0000000000000000     
   183.29508395904028        0.0000000000000000       -0.0000000000000000     
   183.49878006165920        0.0000000000000000       -0.0000000000000000     
   183.75289607012695        0.0000000000000000       -0.0000000000000000     
   184.05704821141413        0.0000000000000000       -0.0000000000000000     
   184.41076667690555        0.0000000000000000       -0.0000000000000000     
   184.81349063313920        0.0000000000000000       -0.0000000000000000     
   185.26456243924321        0.0000000000000000       -0.0000000000000000     
   185.76322109533515        0.0000000000000000       -0.0000000000000000     
   186.30859495418048        0.0000000000000000       -0.0000000000000000     
   186.89969373829311        0.0000000000000000       -0.0000000000000000     
   187.53539991663268        0.0000000000000000       -0.0000000000000000     
   188.21445950932565        0.0000000000000000       -0.0000000000000000     
   188.93547240559008        0.0000000000000000        0.0000000000000000     
   197.41329385401602        6.2039626931509737        0.0000000000000000     
   199.90411420789030        6.2791399701110979       0.19732992322416437     
   202.44941464643398        6.3496747590558469       0.39948767463492368     
   205.04695581746969        6.4152621053061045       0.60642081326126107     
   207.69425943821309        6.4755872741544662       0.81805691541751613     
   210.38859402071802        6.5303265858527118        1.0343021214367909     
   213.12696080982565        6.5791483926340444        1.2550396778049133     
   215.90608009124099        6.6217142070116202        1.4801284874434930     
   218.72237804469603        6.6576799899748460        1.7094016827191025     
   221.57197433518138        6.6866976068571864        1.9426652376371809     
   224.45067065382807        6.7084164575538860        2.1796966375923916     
   227.35394043902684        6.7224852864048765        2.4202436269662013     
   230.27692002757269        6.7285541754084957        2.6640230567572725     
   233.21440150472904        6.7262767224776319        2.9107198562656511     
   236.16082754074415        6.7153124041753740        3.1599861545867394     
   239.11028851905357        6.6953291197587417        3.4114405792584725     
   242.05652227754371        6.6660059104054437        3.6646677607901825     
   244.99291679809917        6.6270358441942152        3.9192180729219754     
   247.91251619026875        6.5781290537527441        4.1746076392476619     
   250.80803032118286        6.5190159094865727        4.4303186372019727     
   253.67184844454002        6.4494503069742448        4.6857999302744267     
   256.49605717508678        6.3692130424888935        4.9404680585690466     
   259.27246313993356        6.2781152457312297        5.1937086163760231     
   261.99262061251648        6.1760018337992610        5.4448780431471020     
   264.64786439726521        6.0627549452668568        5.6933058510602539     
   267.22934818128573        5.9382973081126273        5.9382973081132420     
   269.72808850205189        5.8025954902802157        6.1791365903055020     
   272.13501439589487        5.6556629770386948        6.4150904098781094     
   274.44102269020419        5.4975630152581596        6.6454121187396318     
   276.63703878253676        5.3284111614594245        6.8693462771111857     
   278.71408261297847        5.1483774683012884        7.0861336671319712     
   280.66333938388061        4.9576882433119662        7.2950167198005653     
   282.47623441641315        4.7566273144331355        7.4952453113875421     
   284.14451136049604        4.5455367395915074        7.6860828726285151     
   285.66031279913250        4.3248169022758125        7.8668127409680331     
   287.01626211679633        4.0949259421520194        8.0367446733345673     
   288.20554534218923        3.8563784791917435        8.1952214249195006     
   289.22199153704304        3.6097436016115636        8.3416252888005040     
   290.06015019366339        3.3556421019947225        8.4753844826115436     
   290.71536403336717        3.0947429620266909        8.5959792624326443     
   291.18383557379065        2.8277591039152470        8.7029476412198541     
   291.46268586167906        2.5554424452395388        8.7958905898960698     
   291.55000385353594        2.2785783130153749        8.8744766040179623     
   291.44488507102250        1.9979792914160548        8.9384455278894901     
   291.14745835979460        1.7144785950354142        8.9876115410690858     
   290.65889983475950        1.4289230750017488        9.0218652291518531     
   289.98143339349019        1.1421659778738611        9.0411746810104159     
   289.11831751174577       0.85505958640070079        9.0455855776472607     
   288.07381838732778       0.56844787638211480        9.0352202625698457     
   286.85316985584785       0.28315932470109273        9.0102758091400723     
   285.46252084874794       -9.2770723157388090E-013   8.9710211255990178     
   283.90887148482545      -0.28025294044064641        8.9177931623536999     
   282.19999916765704      -0.55685723590031466        8.8509923076332484     
   280.34437629109158      -0.82911089309313535        8.7710770759107692     
   278.35108132476006       -1.0963568642088082        8.6785582078639418     
   276.22970515616066       -1.3579869734712338        8.5739923106566618     
   273.99025460380261       -1.6134450543151364        8.4579751727537413     
   271.64305498912375       -1.8622292801381775        8.3311348883613530     
   269.19865356861345       -2.1038936916736257        8.1941249231737778     
   266.66772548957778       -2.3380489426198419        8.0476172458514252     
   264.06098375296148       -2.5643623016549721        7.8922956391530112     
   261.38909445545454       -2.7825569629136182        7.7288492915946394     
   258.66259835199008       -2.9924107281273287        7.5579667556558805     
   255.89183953959858       -3.1937541318147469        7.3803303426448323     
   253.08690182446605       -3.3864680861806482        7.1966110080760517     
   250.25755310463796       -3.5704811249024826        7.0074637654391303     
   247.41319788821201       -3.7457663250052349        6.8135236510751351     
   244.56283787637818       -3.9123379838783676        6.6154022489563360     
   241.71504037588636       -4.0702481245438831        6.4136847717894456     
   238.87791416835350       -4.2195828969307438        6.2089276842298631     
   236.05909235471282       -4.3604589365317210        6.0016568451973953     
   233.26572161130045       -4.4930197347757836        5.7923661393281867     
   230.50445723781448       -4.6174320680678358        5.5815165624147305     
   227.78146334425099       -4.7338825250100305        5.3695357221532261     
   225.10241751102555       -4.8425741640585667        5.1568177134720337     
   222.47251926073380       -4.9437233269719210        4.9437233269703853     
   219.89650169823537       -5.0375566270086027        4.7305805493547206     
   217.37864570492053       -5.1243081250300522        4.5176853160227957     
   214.92279611032419       -5.2042167015144898        4.3053024779229352     
   212.53237930713968       -5.2775236280159401        4.0936669473308021     
   210.21042182197507       -5.3444703378094021        3.8829849900803568     
   207.95956940201881       -5.4052963923277888        3.6734356349202071     
   205.78210622566846       -5.4602376374848633        3.4651721739234635     
   203.67997389195159       -5.5095245420464449        3.2583237311599169     
   201.65478988839089       -5.5533807088099394        3.0529968800645912     
   199.70786527926975       -5.5920215484276135        2.8492772930438739     
   197.84022139571937       -5.6256531052102332        2.6472314098015026     
   196.05260534556481       -5.6544710241247422        2.4469081136059461     
   194.34550419451054       -5.6786596484066854        2.2483404072324293     
   192.71915770124343       -5.6983912377032047        2.0515470825787143     
   191.17356951772874       -5.7138252974084693        1.8565343799606779     
   189.70851679282922       -5.7251080108180297        1.6632976348325070     
   188.32355814292100       -5.7323717668835972        1.4718229111385837     
   187.01803997800394       -5.7357347776706389        1.2820886216824199     
   185.79110119655502       -5.7353007810859706        1.0940671367831072     
   184.64167628770690       -5.7311588260308630       0.90772638307076958     
   183.56849690592409       -5.7233831388263612       0.72303143453571472     
   182.57009201184664       -5.7120330715296772       0.53994609787487657     
   181.64478670397077       -5.6971531345873281       0.35843449375448982     
   180.79069989986624       -5.6787731181213026       0.17846263480874675     
   180.00574106307141       -5.6569083079790330       -1.1699793528938094E-012
   179.28760621287509       -5.6315598044472903      -0.17697889665478053     
   178.63377349885053       -5.6027149531722049      -0.35249294699706346     
   178.04149866990250       -5.5703478992668760      -0.52655290583296455     
   177.50781081796947       -5.5344202767327149      -0.69915987362039067     
   177.02950882816424       -5.4948820460634247      -0.87030381751632346     
   176.60315901823708       -5.4516724931185561       -1.0399621472179339     
   176.22509449838270       -5.4047214019110532       -1.2080983660093843     
   175.89141682446927       -5.3539504127064292       -1.3746608215570675     
   175.59800054995009       -5.2992745746353700       -1.5395815851294741     
   175.34050129957271       -5.2406040987414695       -1.7027754918413209     
   175.11436798657382       -5.1778463129098640       -1.8641393779740778     
   174.91485976906611       -5.1109078143789812       -2.0235515540971538     
   174.73706828556098       -5.0396968085146963       -2.1808715542567341     
   174.57594561925754       -4.9641256142925423       -2.3359402015383268     
   174.42633831213999       -4.8841133076587697       -2.4885800284680197     
   174.28302758099903       -4.7995884639128503       -2.6385960866483402     
   174.14077567854036       -4.7104919498892377       -2.7857771734465140     
   173.99437809708206       -4.6167797065617959       -2.9298974942959051     
   173.83872103686429       -4.5184254534143760       -3.0707187672218730     
   173.66884326644413       -4.4154232382681622       -3.2079927617466439     
   173.48000120363599       -4.3077897510244094       -3.3414642477808769     
   173.26773575993261       -4.1955663177407168       -3.4708743121357215     
   173.02793923970930       -4.0788204932811167       -3.5959639817904723     
   172.75692038908420       -3.9576471769504011       -3.7164780751304796     
   172.45146556848823       -3.8321691862620626       -3.8321691862640459     
   172.10889399510350       -3.7025372391844384       -3.9428016945082516     
   171.72710507842925       -3.5689293143768603       -4.0481556823934417     
   171.30461605927857       -3.4315493812065143       -4.1480306420574999     
   170.84058845598074       -3.2906255155315285       -4.2422488523393191     
   170.33484220902525       -3.1464074418983654       -4.3306583174673143     
   169.78785687597062       -2.9991635663522018       -4.4131351727250996     
   169.20075973439333       -2.8491775849318222       -4.4895854821296775     
   168.57530116974058       -2.6967447697144658       -4.5599463768112454     
   167.91381822345389       -2.5421680458945226       -4.6241865089388758     
   167.21918762271491       -2.3857539791348663       -4.6823058230040404     
   166.49476997943381       -2.2278087921037524       -4.7343346723346160     
   165.74434711266224       -2.0686345229605538       -4.7803323322796434     
   164.97205460415768       -1.9085254272687353       -4.8203849812640742     
   164.18231173922112       -1.7477647094207811       -4.8546032359222586     
   163.37975092067160       -1.5866216514067557       -4.8831193362651932     
   162.56914848662908       -1.4253491869832033       -4.9060840812386459     
   161.75535863160033       -1.2641819493058537       -4.9236636143962738     
   160.94325184710010       -1.1033348010379571       -4.9360361543699796     
   160.13765898529763      -0.94300183877885468       -4.9433887562140377     
   159.34332172829139      -0.78335584905236988       -4.9459141784935587     
   158.56484993514371      -0.62454818145734425       -4.9438079181660397     
   157.80668605355547      -0.46670899605813215       -4.9372654617927711     
   157.07307653362045      -0.30994783660622843       -4.9264797882208358     
   156.36804997389234      -0.15435447848595574       -4.9116391452470287     
   155.69540156762343        1.5201278568397439E-012  -4.8929251113908476     
   155.05868329894304       0.15306197269708205       -4.8705109440751668     
   154.46119926190312       0.30479389344013996       -4.8445602073962739     
   153.90600543505255       0.45517283887455368       -4.8152256662879873     
   153.39591323483057       0.60418900338542048       -4.7826484291745075     
   152.93349618655026       0.75184417806046677       -4.7469573180190405     
   152.52109908611314       0.89815024025328927       -4.7082684428203878     
   152.16084907334928        1.0431276752011360       -4.6666849568760878     
   151.85466809412802        1.1868041463782992       -4.6222969693017371     
   151.60428628904575        1.3292131269512952       -4.5751815921658343     
   151.41125590824058        1.4703926009031938       -4.5254031009789637     
   151.27696541218367        1.6103838391317884       -4.4730131890016844     
   151.20265347527885        1.7492302530931356       -4.4180512977678745     
   151.18942266154332        1.8869763263298582       -4.3605450082481854     
   151.23825258877451        2.0236666224515245       -4.3005104791133792     
   151.35001243910116        2.1593448667734596       -4.2379529205346307     
   151.52547270962725        2.2940530978176943       -4.1728670938312034     
   151.76531612719370        2.4278308841839213       -4.1052378290146452     
   152.07014767644620        2.5607146018585794       -4.0350405538660334     
   152.44050371085427        2.6927367668016928       -3.9622418296112452     
   152.87686013255851        2.8239254175917607       -3.8867998895294358     
   153.37963963945413        2.9543035429842792       -3.8086651779476490     
   153.94921804724427        3.0838885494179302       -3.7277808880494812     
   154.58592970080744        3.2126917637599015       -3.6440834977696244     
   155.29007199355959        3.3407179668967282       -3.5575033037721897     
   156.06190901597461        3.4679649541343442       -3.4679649541318320     
   156.90167435541142        3.5944231187573514       -3.3753879808661371     