 VARIABLES = "x_1", "x_2", "x_3"
 ZONE F = POINT , I =         201  , J =         101
   1674.5321785318604        0.0000000000000000        0.0000000000000000     
   1674.5321785318604        0.0000000000000000        0.0000000000000000     
   1674.5321785318604        0.0000000000000000        0.0000000000000000     
   1674.5321785318604        0.0000000000000000        0.0000000000000000     
   1674.5321785318604        0.0000000000000000        0.0000000000000000     
   1674.5321785318604        0.0000000000000000        0.0000000000000000     
   1674.5321785318604        0.0000000000000000        0.0000000000000000     
   1674.5321785318604        0.0000000000000000        0.0000000000000000     
   1674.5321785318604        0.0000000000000000        0.0000000000000000     
   1674.5321785318604        0.0000000000000000        0.0000000000000000     
   1674.5321785318604        0.0000000000000000        0.0000000000000000     
   1674.5321785318604        0.0000000000000000        0.0000000000000000     
   1674.5321785318604        0.0000000000000000        0.0000000000000000     
   1674.5321785318604        0.0000000000000000        0.0000000000000000     
   1674.5321785318604        0.0000000000000000        0.0000000000000000     
   1674.5321785318604        0.0000000000000000        0.0000000000000000     
   1674.5321785318604        0.0000000000000000        0.0000000000000000     
   1674.5321785318604        0.0000000000000000        0.0000000000000000     
   1674.5321785318604        0.0000000000000000        0.0000000000000000     
   1674.5321785318604        0.0000000000000000        0.0000000000000000     
   1674.5321785318604        0.0000000000000000        0.0000000000000000     
   1674.5321785318604        0.0000000000000000        0.0000000000000000     
   1674.5321785318604        0.0000000000000000        0.0000000000000000     
   1674.5321785318604        0.0000000000000000        0.0000000000000000     
   1674.5321785318604        0.0000000000000000        0.0000000000000000     
   1674.5321785318604        0.0000000000000000        0.0000000000000000     
   1674.5321785318604        0.0000000000000000        0.0000000000000000     
   1674.5321785318604        0.0000000000000000        0.0000000000000000     
   1674.5321785318604        0.0000000000000000        0.0000000000000000     
   1674.5321785318604        0.0000000000000000        0.0000000000000000     
   1674.5321785318604        0.0000000000000000        0.0000000000000000     
   1674.5321785318604        0.0000000000000000        0.0000000000000000     
   1674.5321785318604        0.0000000000000000        0.0000000000000000     
   1674.5321785318604        0.0000000000000000        0.0000000000000000     
   1674.5321785318604        0.0000000000000000        0.0000000000000000     
   1674.5321785318604        0.0000000000000000        0.0000000000000000     
   1674.5321785318604        0.0000000000000000        0.0000000000000000     
   1674.5321785318604        0.0000000000000000        0.0000000000000000     
   1674.5321785318604        0.0000000000000000        0.0000000000000000     
   1674.5321785318604        0.0000000000000000        0.0000000000000000     
   1674.5321785318604        0.0000000000000000        0.0000000000000000     
   1674.5321785318604        0.0000000000000000        0.0000000000000000     
   1674.5321785318604        0.0000000000000000        0.0000000000000000     
   1674.5321785318604        0.0000000000000000        0.0000000000000000     
   1674.5321785318604        0.0000000000000000        0.0000000000000000     
   1674.5321785318604        0.0000000000000000        0.0000000000000000     
   1674.5321785318604        0.0000000000000000        0.0000000000000000     
   1674.5321785318604        0.0000000000000000        0.0000000000000000     
   1674.5321785318604        0.0000000000000000        0.0000000000000000     
   1674.5321785318604        0.0000000000000000        0.0000000000000000     
   1674.5321785318604       -0.0000000000000000        0.0000000000000000     
   1674.5321785318604       -0.0000000000000000        0.0000000000000000     
   1674.5321785318604       -0.0000000000000000        0.0000000000000000     
   1674.5321785318604       -0.0000000000000000        0.0000000000000000     
   1674.5321785318604       -0.0000000000000000        0.0000000000000000     
   1674.5321785318604       -0.0000000000000000        0.0000000000000000     
   1674.5321785318604       -0.0000000000000000        0.0000000000000000     
   1674.5321785318604       -0.0000000000000000        0.0000000000000000     
   1674.5321785318604       -0.0000000000000000        0.0000000000000000     
   1674.5321785318604       -0.0000000000000000        0.0000000000000000     
   1674.5321785318604       -0.0000000000000000        0.0000000000000000     
   1674.5321785318604       -0.0000000000000000        0.0000000000000000     
   1674.5321785318604       -0.0000000000000000        0.0000000000000000     
   1674.5321785318604       -0.0000000000000000        0.0000000000000000     
   1674.5321785318604       -0.0000000000000000        0.0000000000000000     
   1674.5321785318604       -0.0000000000000000        0.0000000000000000     
   1674.5321785318604       -0.0000000000000000        0.0000000000000000     
   1674.5321785318604       -0.0000000000000000        0.0000000000000000     
   1674.5321785318604       -0.0000000000000000        0.0000000000000000     
   1674.5321785318604       -0.0000000000000000        0.0000000000000000     
   1674.5321785318604       -0.0000000000000000        0.0000000000000000     
   1674.5321785318604       -0.0000000000000000        0.0000000000000000     
   1674.5321785318604       -0.0000000000000000        0.0000000000000000     
   1674.5321785318604       -0.0000000000000000        0.0000000000000000     
   1674.5321785318604       -0.0000000000000000        0.0000000000000000     
   1674.5321785318604       -0.0000000000000000        0.0000000000000000     
   1674.5321785318604       -0.0000000000000000        0.0000000000000000     
   1674.5321785318604       -0.0000000000000000        0.0000000000000000     
   1674.5321785318604       -0.0000000000000000        0.0000000000000000     
   1674.5321785318604       -0.0000000000000000        0.0000000000000000     
   1674.5321785318604       -0.0000000000000000        0.0000000000000000     
   1674.5321785318604       -0.0000000000000000        0.0000000000000000     
   1674.5321785318604       -0.0000000000000000        0.0000000000000000     
   1674.5321785318604       -0.0000000000000000        0.0000000000000000     
   1674.5321785318604       -0.0000000000000000        0.0000000000000000     
   1674.5321785318604       -0.0000000000000000        0.0000000000000000     
   1674.5321785318604       -0.0000000000000000        0.0000000000000000     
   1674.5321785318604       -0.0000000000000000        0.0000000000000000     
   1674.5321785318604       -0.0000000000000000        0.0000000000000000     
   1674.5321785318604       -0.0000000000000000        0.0000000000000000     
   1674.5321785318604       -0.0000000000000000        0.0000000000000000     
   1674.5321785318604       -0.0000000000000000        0.0000000000000000     
   1674.5321785318604       -0.0000000000000000        0.0000000000000000     
   1674.5321785318604       -0.0000000000000000        0.0000000000000000     
   1674.5321785318604       -0.0000000000000000        0.0000000000000000     
   1674.5321785318604       -0.0000000000000000        0.0000000000000000     
   1674.5321785318604       -0.0000000000000000        0.0000000000000000     
   1674.5321785318604       -0.0000000000000000        0.0000000000000000     
   1674.5321785318604       -0.0000000000000000        0.0000000000000000     
   1674.5321785318604       -0.0000000000000000        0.0000000000000000     
   1674.5321785318604       -0.0000000000000000       -0.0000000000000000     
   1674.5321785318604       -0.0000000000000000       -0.0000000000000000     
   1674.5321785318604       -0.0000000000000000       -0.0000000000000000     
   1674.5321785318604       -0.0000000000000000       -0.0000000000000000     
   1674.5321785318604       -0.0000000000000000       -0.0000000000000000     
   1674.5321785318604       -0.0000000000000000       -0.0000000000000000     
   1674.5321785318604       -0.0000000000000000       -0.0000000000000000     
   1674.5321785318604       -0.0000000000000000       -0.0000000000000000     
   1674.5321785318604       -0.0000000000000000       -0.0000000000000000     
   1674.5321785318604       -0.0000000000000000       -0.0000000000000000     
   1674.5321785318604       -0.0000000000000000       -0.0000000000000000     
   1674.5321785318604       -0.0000000000000000       -0.0000000000000000     
   1674.5321785318604       -0.0000000000000000       -0.0000000000000000     
   1674.5321785318604       -0.0000000000000000       -0.0000000000000000     
   1674.5321785318604       -0.0000000000000000       -0.0000000000000000     
   1674.5321785318604       -0.0000000000000000       -0.0000000000000000     
   1674.5321785318604       -0.0000000000000000       -0.0000000000000000     
   1674.5321785318604       -0.0000000000000000       -0.0000000000000000     
   1674.5321785318604       -0.0000000000000000       -0.0000000000000000     
   1674.5321785318604       -0.0000000000000000       -0.0000000000000000     
   1674.5321785318604       -0.0000000000000000       -0.0000000000000000     
   1674.5321785318604       -0.0000000000000000       -0.0000000000000000     
   1674.5321785318604       -0.0000000000000000       -0.0000000000000000     
   1674.5321785318604       -0.0000000000000000       -0.0000000000000000     
   1674.5321785318604       -0.0000000000000000       -0.0000000000000000     
   1674.5321785318604       -0.0000000000000000       -0.0000000000000000     
   1674.5321785318604       -0.0000000000000000       -0.0000000000000000     
   1674.5321785318604       -0.0000000000000000       -0.0000000000000000     
   1674.5321785318604       -0.0000000000000000       -0.0000000000000000     
   1674.5321785318604       -0.0000000000000000       -0.0000000000000000     
   1674.5321785318604       -0.0000000000000000       -0.0000000000000000     
   1674.5321785318604       -0.0000000000000000       -0.0000000000000000     
   1674.5321785318604       -0.0000000000000000       -0.0000000000000000     
   1674.5321785318604       -0.0000000000000000       -0.0000000000000000     
   1674.5321785318604       -0.0000000000000000       -0.0000000000000000     
   1674.5321785318604       -0.0000000000000000       -0.0000000000000000     
   1674.5321785318604       -0.0000000000000000       -0.0000000000000000     
   1674.5321785318604       -0.0000000000000000       -0.0000000000000000     
   1674.5321785318604       -0.0000000000000000       -0.0000000000000000     
   1674.5321785318604       -0.0000000000000000       -0.0000000000000000     
   1674.5321785318604       -0.0000000000000000       -0.0000000000000000     
   1674.5321785318604       -0.0000000000000000       -0.0000000000000000     
   1674.5321785318604       -0.0000000000000000       -0.0000000000000000     
   1674.5321785318604       -0.0000000000000000       -0.0000000000000000     
   1674.5321785318604       -0.0000000000000000       -0.0000000000000000     
   1674.5321785318604       -0.0000000000000000       -0.0000000000000000     
   1674.5321785318604       -0.0000000000000000       -0.0000000000000000     
   1674.5321785318604       -0.0000000000000000       -0.0000000000000000     
   1674.5321785318604       -0.0000000000000000       -0.0000000000000000     
   1674.5321785318604       -0.0000000000000000       -0.0000000000000000     
   1674.5321785318604        0.0000000000000000       -0.0000000000000000     
   1674.5321785318604        0.0000000000000000       -0.0000000000000000     
   1674.5321785318604        0.0000000000000000       -0.0000000000000000     
   1674.5321785318604        0.0000000000000000       -0.0000000000000000     
   1674.5321785318604        0.0000000000000000       -0.0000000000000000     
   1674.5321785318604        0.0000000000000000       -0.0000000000000000     
   1674.5321785318604        0.0000000000000000       -0.0000000000000000     
   1674.5321785318604        0.0000000000000000       -0.0000000000000000     
   1674.5321785318604        0.0000000000000000       -0.0000000000000000     
   1674.5321785318604        0.0000000000000000       -0.0000000000000000     
   1674.5321785318604        0.0000000000000000       -0.0000000000000000     
   1674.5321785318604        0.0000000000000000       -0.0000000000000000     
   1674.5321785318604        0.0000000000000000       -0.0000000000000000     
   1674.5321785318604        0.0000000000000000       -0.0000000000000000     
   1674.5321785318604        0.0000000000000000       -0.0000000000000000     
   1674.5321785318604        0.0000000000000000       -0.0000000000000000     
   1674.5321785318604        0.0000000000000000       -0.0000000000000000     
   1674.5321785318604        0.0000000000000000       -0.0000000000000000     
   1674.5321785318604        0.0000000000000000       -0.0000000000000000     
   1674.5321785318604        0.0000000000000000       -0.0000000000000000     
   1674.5321785318604        0.0000000000000000       -0.0000000000000000     
   1674.5321785318604        0.0000000000000000       -0.0000000000000000     
   1674.5321785318604        0.0000000000000000       -0.0000000000000000     
   1674.5321785318604        0.0000000000000000       -0.0000000000000000     
   1674.5321785318604        0.0000000000000000       -0.0000000000000000     
   1674.5321785318604        0.0000000000000000       -0.0000000000000000     
   1674.5321785318604        0.0000000000000000       -0.0000000000000000     
   1674.5321785318604        0.0000000000000000       -0.0000000000000000     
   1674.5321785318604        0.0000000000000000       -0.0000000000000000     
   1674.5321785318604        0.0000000000000000       -0.0000000000000000     
   1674.5321785318604        0.0000000000000000       -0.0000000000000000     
   1674.5321785318604        0.0000000000000000       -0.0000000000000000     
   1674.5321785318604        0.0000000000000000       -0.0000000000000000     
   1674.5321785318604        0.0000000000000000       -0.0000000000000000     
   1674.5321785318604        0.0000000000000000       -0.0000000000000000     
   1674.5321785318604        0.0000000000000000       -0.0000000000000000     
   1674.5321785318604        0.0000000000000000       -0.0000000000000000     
   1674.5321785318604        0.0000000000000000       -0.0000000000000000     
   1674.5321785318604        0.0000000000000000       -0.0000000000000000     
   1674.5321785318604        0.0000000000000000       -0.0000000000000000     
   1674.5321785318604        0.0000000000000000       -0.0000000000000000     
   1674.5321785318604        0.0000000000000000       -0.0000000000000000     
   1674.5321785318604        0.0000000000000000       -0.0000000000000000     
   1674.5321785318604        0.0000000000000000       -0.0000000000000000     
   1674.5321785318604        0.0000000000000000       -0.0000000000000000     
   1674.5321785318604        0.0000000000000000       -0.0000000000000000     
   1674.5321785318604        0.0000000000000000       -0.0000000000000000     
   1674.5321785318604        0.0000000000000000       -0.0000000000000000     
   1674.5321785318604        0.0000000000000000       -0.0000000000000000     
   1674.5321785318604        0.0000000000000000       -0.0000000000000000     
   1674.5321785318604        0.0000000000000000        0.0000000000000000     
   1656.2633056366383        52.050171280780638        0.0000000000000000     
   1655.6806908595718        52.006187290902432        1.6343602777043551     
   1655.1215079849969        51.911650526512908        3.2660042194635275     
   1654.5856160107787        51.766681246550640        4.8933921055859688     
   1654.0728393390611        51.571444766556048        6.5149885629272575     
   1653.5829706182515        51.326151425672322        8.1292637675680552     
   1653.1157736534333        51.031056529608975        9.7346946630159756     
   1652.6709863727935        50.686460267149272        11.329766194022742     
   1652.2483238374180        50.292707597729084        12.912972555832127     
   1651.8474812815512        49.850188107587847        14.482818458393265     
   1651.4681371702704        49.359335831995431        16.037820404791091     
   1651.1099562613476        48.820629041088722        17.576507982863244     
   1650.7725926580267        48.234589986912788        19.097425168694272     
   1650.4556928393749        47.601784609348272        20.599131640405307     
   1650.1588986548995        46.922822198722990        22.080204100394024     
   1649.8818502701940        46.198355013047539        23.539237603928051     
   1649.6241890505084        45.429077847982640        24.974846891757931     
   1649.3855603693271        44.615727557837289        26.385667724195041     
   1649.1656163292944        43.759082526110930        27.770358213899208     
   1648.9640183831409        42.859962084326888        29.127600154440827     
   1648.7804398426401        41.919225878156851        30.456100341546477     
   1648.6145682640629        40.937773180103903        31.754591883805809     
   1648.4661076990935        39.916542148292990        33.021835499513749     
   1648.3347808007468        38.856509031209590        34.256620796245834     
   1648.2203307744087        37.758687318525681        35.457767529717422     
   1648.1225231648411        36.624126838456888        36.624126838460676     
   1648.0411474706814        35.453912802399373        37.754582450865826     
   1647.9760185787572        34.249164797898594        38.848051861176344     
   1647.9269780113682        33.011035731302179        39.903487471101059     
   1647.8938949805217        31.740710721739234        40.919877693808267     
   1647.8766672440436        30.439405948350874        41.896248017198317     
   1647.8752217593881        29.108367452962852        42.831662023509082     
   1647.8895151319398        27.748869900642919        43.725222362493000     
   1647.9195338555721        26.362215300817617        44.576071675612212     
   1647.9652943442311        24.949731691834479        45.383393468928894     
   1648.0268427542821        23.512771792042894        46.146412932616798     
   1648.1042545983996        22.052711620629708        46.864397705288063     
   1648.1976341527266        20.570949091580790        47.536658581609437     
   1648.3071136600743        19.068902584247432        48.162550161976725     
   1648.4328523328340        17.548009494073707        48.741471443316520     
   1648.5750351602901        16.009724767089761        49.272866350392960     
   1648.7338715258813        14.455519421792644        49.756224207306403     
   1648.9095936408814        12.886879062023857        50.191080149180713     
   1649.1024548018001        11.305302384409480        50.577015474341316     
   1649.3127274796198        9.7122996838559121        50.913657937585377     
   1649.5407012497333        8.1093913604926939        51.200681985434336     
   1649.7866805721508        6.4981064313245893        51.437808934535724     
   1650.0509824322294        4.8799810497003637        51.624807094643167     
   1650.3339338527226        3.2565570355254105        51.761491837845746     
   1650.6358692885494        1.6293804189440384        51.847725615943069     
   1650.9571279161150       -5.3653448516898098E-012   51.883417928062158     
   1651.2980508294668       -1.6300340734988306        51.868525240790483     
   1651.6589781559089       -3.2591717077908795        51.803050863250334     
   1652.0402461040132       -4.8858642430938861        51.687044779664973     
   1652.4421839572074       -6.5085658100101167        51.520603442063184     
   1652.8651110262726       -8.1257346613386225        51.303869525836419     
   1653.3093335742381       -9.7358344783675630        51.037031650901881     
   1653.7751417272168       -11.337335651052793        50.720324071233854     
   1654.2628063847246       -12.928716531771386        50.354026335505083     
   1654.7725761429961       -14.508464662622451        49.938462921531290     
   1655.3046742447277       -16.075077976523819        49.474002847134912     
   1655.8592955685165       -17.627065972618915        48.961059259938331     
   1656.4366036711106       -19.162950866762184        48.400089008467468     
   1657.0367278953440       -20.681268718088976        47.791592196789985     
   1657.6597605563659       -22.180570532897157        47.136111724733361     
   1658.3057542184868       -23.659423347268994        46.434232815528532     
   1658.9747190746241       -25.116411290041444        45.686582532504552     
   1659.6666204399589       -26.550136627889760        44.893829286222640     
   1660.3813763710318       -27.959220794420961        44.056682333186139     
   1661.1188554210776       -29.342305405279422        43.175891266998171     
   1661.8788745419592       -30.698053261345137        42.252245502563738     
   1662.6611971425802       -32.025149342155402        41.286573753650870     
   1663.4655313131755       -33.322301791702152        40.279743503837771     
   1664.2915282243621       -34.588242898749442        39.232660470583660     
   1665.1387807092920       -35.821730073777843        38.146268061871517     
   1666.0068220367164       -37.021546824596811        37.021546824585307     
   1666.8951248821718       -38.186503732568937        35.859513883503901     
   1667.8031005039479       -39.315439431267194        34.661222369522861     
   1668.7300981298404       -40.407221589232137        33.427760835454116     
   1669.6754045601238       -41.460747898318516        32.160252657508124     
   1670.6382439914771       -42.474947068913814        30.859855420331797     
   1671.6177780659953       -43.448779833083279        29.527760283264723     
   1672.6131061486699       -44.381239956442009        28.165191325284951     
   1673.6232658360898       -45.271355259282174        26.773404865948763     
   1674.6472336983406       -46.118188647190102        25.353688759486122     
   1675.6839262553740       -46.920839151078340        23.907361659098598     
   1676.7322011883491       -47.678442976233548        22.435772248420307     
   1677.7908587856655       -48.390174559644194        20.940298437046032     
   1678.8586436226253       -49.055247634526296        19.422346517006780     
   1679.9342464728265       -49.672916300611902        17.883350277081256     
   1681.0163064485855       -50.242476098409306        16.324770071873854     
   1682.1034133668034       -50.763265085285028        14.748091842666529     
   1683.1941103358611       -51.234664910863330        13.154826087162947     
   1684.2868965582302       -51.656101888888479        11.546506775389581     
   1685.3802303426121       -52.027048062353970        9.9246902091992428     
   1686.4725323185148       -52.347022258372903        8.2909538230378850     
   1687.5621888453022       -52.615591128950456        6.6468949238842550     
   1688.6475556068126       -52.832370173522044        4.9941293685533301     
   1689.7269613818069       -52.997024738847863        3.3342901768672704     
   1690.7987119795544       -53.109270991603260        1.6690260795396690     
   1691.8610943290666       -53.168876858783960       -1.0996552313494076E-011
   1692.9123807095564       -53.175662930851630       -1.6711125303076264     
   1693.9508331089573       -53.129503322389034       -3.3426250228910348     
   1694.9747076964566       -53.030326484909132       -5.0128417493590938     
   1695.9822593942963       -52.878115966379568       -6.6800595234455100     
   1696.9717465333486       -52.672911111977839       -8.3425695467464021     
   1697.9414355762999       -52.414807700589634       -9.9986593162236925     
   1698.8896058916860       -52.103958511602876       -11.646614591129689     
   1699.8145545614400       -51.740573816633002       -13.284721416508724     
   1700.7146012041567       -51.324921790943947       -14.911268199946946     
   1701.5880927958560       -50.857328839502834       -16.524547837761087     
   1702.4334084696943       -50.338179832823478       -18.122859886347566     
   1703.2489642758426       -49.767918248017395       -19.704512773958648     
   1704.0332178826025       -49.147046210775962       -21.267826047736328     
   1704.7846731997438       -48.476124434354247       -22.811132650421531     
   1705.5018849051246       -47.755772052015153       -24.332781220770809     
   1706.1834628557845       -46.986666339816864       -25.831138411358438     
   1706.8280763649379       -46.169542327086091       -27.304591217121896     
   1707.4344583266770       -45.305192292411959       -28.751549307728538     
   1708.0014091706121       -44.394465143513948       -30.170447356601247     
   1708.5278006292908       -43.438265679883031       -31.559747359247211     
   1709.0125793018576       -42.437553737658320       -32.917940933385509     
   1709.4547699982315       -41.393343216783165       -34.243551593272393     
   1709.8534788489183       -40.306700991075701       -35.535136990574358     
   1710.2078961665479       -39.178745702447074       -36.791291114145181     
   1710.5172990462981       -38.010646441100562       -38.010646441120230     
   1710.7810536934785       -36.803621314140251       -39.191876031852026     
   1710.9986174677742       -35.558935905605345       -40.333695561374263     
   1711.1695406349452       -34.277901631520166       -41.434865280296989     
   1711.2934678180895       -32.961873994104131       -42.494191898300720     
   1711.3701391420186       -31.612250739818279       -43.510530383711973     
   1711.3993910656743       -30.230469926426956       -44.482785673002624     
   1711.3811568990445       -28.818007904726333       -45.409914284459589     
   1711.3154670024765       -27.376377221023112       -46.290925830715480     
   1711.2024486678235       -25.907124446844243       -47.124884425310839     
   1711.0423256823383       -24.411827942706154       -47.910909978972398     
   1710.8354175777324       -22.892095563079671       -48.648179381831859     
   1710.5821385682937       -21.349562309939756       -49.335927568375979     
   1710.2829961833850       -19.785887942496924       -49.973448462500613     
   1709.9385896010485       -18.202754550857772       -50.560095800640191     
   1709.5496076908089       -16.601864101464823       -51.095283831549423     
   1709.1168267750329       -14.984935962209754       -51.578487891924645     
   1708.6411081194465       -13.353704415110327       -52.009244857659624     
   1708.1233951645631       -11.709916164379591       -52.387153471134489     
   1707.5647105108264       -10.055327847607844       -52.711874545525149     
   1706.9661526712857       -8.3917035576148606       -52.983131047697661     
   1706.3288926064804       -6.7208123823242554       -53.200708061804413     
   1705.6541700570383       -5.0444259697559986       -53.364452636230325     
   1704.9432896901710       -3.3643161249386040       -53.474273517037403     
   1704.1976170768432       -1.6822524452074725       -53.530140771525112     
   1703.4185745169220        1.6631281341066171E-011  -53.532085305958283     
   1702.6076367299595        1.6806829392751648       -53.480198281909132     
   1701.7663264296041        3.3580471136852963       -53.374630436015302     
   1700.8962097997824        5.0303544313106361       -53.215591308268259     
   1699.9988918909419        6.6958800569576464       -53.003348384215492     
   1699.0760119545967        8.3529144335523551       -52.738226156682835     
   1698.1292387343594        9.9997652317551751       -52.420605112801411     
   1697.1602657314736        11.634759224975230       -52.050920652256572     
   1696.1708064625791        13.256244087457546       -51.629661942761381     
   1695.1625897271176        14.862590113620330       -51.157370718799157     
   1694.1373549014106        16.452191857323911       -50.634640029677506     
   1693.0968472759141        18.023469690240901       -50.062112942889542     
   1692.0428134516922        19.574871278978168       -49.440481208693065     
   1690.9769968115083        21.104872981060069       -48.770483891691455     
   1689.9011330803437        22.611981160324078       -48.052905975039067     
   1688.8169459894746        24.094733422699544       -47.288576942696245     
   1687.7261430575027        25.551699773730391       -46.478369344930933     
   1686.6304115010466        26.981483699570738       -45.623197352006642     
   1685.5314142869966        28.382723173514584       -44.724015300713894     
   1684.4307863374854        29.754091590427322       -43.781816238095566     
   1683.3301308979160        31.094298631714942       -42.797630466392363     
   1682.2310160775878        32.402091063706386       -41.772524092892070     
   1681.1349715716717        33.676253472524337       -40.707597588012973     
   1680.0434855724438        34.915608938689040       -39.603984354585961     
   1678.9580018769022        36.119019654829060       -38.462849310930523     
   1677.8799171970825        37.285387489971676       -37.285387489944668     
   1676.8105786785816        38.413654503944521       -36.072822656055180     