 VARIABLES = "x_1", "x_2", "x_3"
 ZONE F = POINT , I =         201  , J =         101
   629.35097124195522        0.0000000000000000        0.0000000000000000     
   629.36740286713348        0.0000000000000000        0.0000000000000000     
   629.38102281894771        0.0000000000000000        0.0000000000000000     
   629.39177679342231        0.0000000000000000        0.0000000000000000     
   629.39962190606025        0.0000000000000000        0.0000000000000000     
   629.40452686813194        0.0000000000000000        0.0000000000000000     
   629.40647211536145        0.0000000000000000        0.0000000000000000     
   629.40544988842112        0.0000000000000000        0.0000000000000000     
   629.40146426486297        0.0000000000000000        0.0000000000000000     
   629.39453114233675        0.0000000000000000        0.0000000000000000     
   629.38467817317792        0.0000000000000000        0.0000000000000000     
   629.37194465066284        0.0000000000000000        0.0000000000000000     
   629.35638134745216        0.0000000000000000        0.0000000000000000     
   629.33805030696999        0.0000000000000000        0.0000000000000000     
   629.31702458866835        0.0000000000000000        0.0000000000000000     
   629.29338796834179        0.0000000000000000        0.0000000000000000     
   629.26723459486084        0.0000000000000000        0.0000000000000000     
   629.23866860487306        0.0000000000000000        0.0000000000000000     
   629.20780369721990        0.0000000000000000        0.0000000000000000     
   629.17476266897631        0.0000000000000000        0.0000000000000000     
   629.13967691519031        0.0000000000000000        0.0000000000000000     
   629.10268589454336        0.0000000000000000        0.0000000000000000     
   629.06393656329237        0.0000000000000000        0.0000000000000000     
   629.02358277997791        0.0000000000000000        0.0000000000000000     
   628.98178468348726        0.0000000000000000        0.0000000000000000     
   628.93870804716209        0.0000000000000000        0.0000000000000000     
   628.89452361171834        0.0000000000000000        0.0000000000000000     
   628.84940639981448        0.0000000000000000        0.0000000000000000     
   628.80353501515265        0.0000000000000000        0.0000000000000000     
   628.75709092903935        0.0000000000000000        0.0000000000000000     
   628.71025775735745        0.0000000000000000        0.0000000000000000     
   628.66322053090062        0.0000000000000000        0.0000000000000000     
   628.61616496203749        0.0000000000000000        0.0000000000000000     
   628.56927671063670        0.0000000000000000        0.0000000000000000     
   628.52274065216966        0.0000000000000000        0.0000000000000000     
   628.47674015086488        0.0000000000000000        0.0000000000000000     
   628.43145634073198        0.0000000000000000        0.0000000000000000     
   628.38706741722137        0.0000000000000000        0.0000000000000000     
   628.34374794220560        0.0000000000000000        0.0000000000000000     
   628.30166816489725        0.0000000000000000        0.0000000000000000     
   628.26099336122411        0.0000000000000000        0.0000000000000000     
   628.22188319409338        0.0000000000000000        0.0000000000000000     
   628.18449109686708        0.0000000000000000        0.0000000000000000     
   628.14896368227119        0.0000000000000000        0.0000000000000000     
   628.11544017884285        0.0000000000000000        0.0000000000000000     
   628.08405189690257        0.0000000000000000        0.0000000000000000     
   628.05492172591846        0.0000000000000000        0.0000000000000000     
   628.02816366499974        0.0000000000000000        0.0000000000000000     
   628.00388238813366        0.0000000000000000        0.0000000000000000     
   627.98217284564328        0.0000000000000000        0.0000000000000000     
   627.96311990321203       -0.0000000000000000        0.0000000000000000     
   627.94679801968641       -0.0000000000000000        0.0000000000000000     
   627.93327096473013       -0.0000000000000000        0.0000000000000000     
   627.92259157726471       -0.0000000000000000        0.0000000000000000     
   627.91480156549221       -0.0000000000000000        0.0000000000000000     
   627.90993134915914       -0.0000000000000000        0.0000000000000000     
   627.90799994457348       -0.0000000000000000        0.0000000000000000     
   627.90901489275313       -0.0000000000000000        0.0000000000000000     
   627.91297223093841       -0.0000000000000000        0.0000000000000000     
   627.91985650756192       -0.0000000000000000        0.0000000000000000     
   627.92964084062623       -0.0000000000000000        0.0000000000000000     
   627.94228701930001       -0.0000000000000000        0.0000000000000000     
   627.95774564840076       -0.0000000000000000        0.0000000000000000     
   627.97595633529409       -0.0000000000000000        0.0000000000000000     
   627.99684791859261       -0.0000000000000000        0.0000000000000000     
   628.02033873790606       -0.0000000000000000        0.0000000000000000     
   628.04633694374775       -0.0000000000000000        0.0000000000000000     
   628.07474084656792       -0.0000000000000000        0.0000000000000000     
   628.10543930374445       -0.0000000000000000        0.0000000000000000     
   628.13831214323102       -0.0000000000000000        0.0000000000000000     
   628.17323062241758       -0.0000000000000000        0.0000000000000000     
   628.21005792063943       -0.0000000000000000        0.0000000000000000     
   628.24864966363270       -0.0000000000000000        0.0000000000000000     
   628.28885447810706       -0.0000000000000000        0.0000000000000000     
   628.33051457448937       -0.0000000000000000        0.0000000000000000     
   628.37346635576705       -0.0000000000000000        0.0000000000000000     
   628.41754105024597       -0.0000000000000000        0.0000000000000000     
   628.46256536593251       -0.0000000000000000        0.0000000000000000     
   628.50836216413813       -0.0000000000000000        0.0000000000000000     
   628.55475114981607       -0.0000000000000000        0.0000000000000000     
   628.60154957604084       -0.0000000000000000        0.0000000000000000     
   628.64857295996785       -0.0000000000000000        0.0000000000000000     
   628.69563580753129       -0.0000000000000000        0.0000000000000000     
   628.74255234407462       -0.0000000000000000        0.0000000000000000     
   628.78913724805761       -0.0000000000000000        0.0000000000000000     
   628.83520638493883       -0.0000000000000000        0.0000000000000000     
   628.88057753829594       -0.0000000000000000        0.0000000000000000     
   628.92507113523845       -0.0000000000000000        0.0000000000000000     
   628.96851096314754       -0.0000000000000000        0.0000000000000000     
   629.01072487478996       -0.0000000000000000        0.0000000000000000     
   629.05154547887435       -0.0000000000000000        0.0000000000000000     
   629.09081081314901       -0.0000000000000000        0.0000000000000000     
   629.12836499718458       -0.0000000000000000        0.0000000000000000     
   629.16405886205769       -0.0000000000000000        0.0000000000000000     
   629.19775055421565       -0.0000000000000000        0.0000000000000000     
   629.22930611090203       -0.0000000000000000        0.0000000000000000     
   629.25860000462217       -0.0000000000000000        0.0000000000000000     
   629.28551565425460       -0.0000000000000000        0.0000000000000000     
   629.30994590053297       -0.0000000000000000        0.0000000000000000     
   629.33179344378436       -0.0000000000000000        0.0000000000000000     
   629.35097124195534       -0.0000000000000000       -0.0000000000000000     
   629.36740286713371       -0.0000000000000000       -0.0000000000000000     
   629.38102281894771       -0.0000000000000000       -0.0000000000000000     
   629.39177679342220       -0.0000000000000000       -0.0000000000000000     
   629.39962190606036       -0.0000000000000000       -0.0000000000000000     
   629.40452686813182       -0.0000000000000000       -0.0000000000000000     
   629.40647211536134       -0.0000000000000000       -0.0000000000000000     
   629.40544988842112       -0.0000000000000000       -0.0000000000000000     
   629.40146426486297       -0.0000000000000000       -0.0000000000000000     
   629.39453114233652       -0.0000000000000000       -0.0000000000000000     
   629.38467817317792       -0.0000000000000000       -0.0000000000000000     
   629.37194465066284       -0.0000000000000000       -0.0000000000000000     
   629.35638134745216       -0.0000000000000000       -0.0000000000000000     
   629.33805030696999       -0.0000000000000000       -0.0000000000000000     
   629.31702458866823       -0.0000000000000000       -0.0000000000000000     
   629.29338796834179       -0.0000000000000000       -0.0000000000000000     
   629.26723459486072       -0.0000000000000000       -0.0000000000000000     
   629.23866860487283       -0.0000000000000000       -0.0000000000000000     
   629.20780369721945       -0.0000000000000000       -0.0000000000000000     
   629.17476266897609       -0.0000000000000000       -0.0000000000000000     
   629.13967691519008       -0.0000000000000000       -0.0000000000000000     
   629.10268589454290       -0.0000000000000000       -0.0000000000000000     
   629.06393656329215       -0.0000000000000000       -0.0000000000000000     
   629.02358277997769       -0.0000000000000000       -0.0000000000000000     
   628.98178468348704       -0.0000000000000000       -0.0000000000000000     
   628.93870804716164       -0.0000000000000000       -0.0000000000000000     
   628.89452361171811       -0.0000000000000000       -0.0000000000000000     
   628.84940639981414       -0.0000000000000000       -0.0000000000000000     
   628.80353501515219       -0.0000000000000000       -0.0000000000000000     
   628.75709092903901       -0.0000000000000000       -0.0000000000000000     
   628.71025775735723       -0.0000000000000000       -0.0000000000000000     
   628.66322053090039       -0.0000000000000000       -0.0000000000000000     
   628.61616496203737       -0.0000000000000000       -0.0000000000000000     
   628.56927671063647       -0.0000000000000000       -0.0000000000000000     
   628.52274065216955       -0.0000000000000000       -0.0000000000000000     
   628.47674015086454       -0.0000000000000000       -0.0000000000000000     
   628.43145634073164       -0.0000000000000000       -0.0000000000000000     
   628.38706741722115       -0.0000000000000000       -0.0000000000000000     
   628.34374794220537       -0.0000000000000000       -0.0000000000000000     
   628.30166816489691       -0.0000000000000000       -0.0000000000000000     
   628.26099336122377       -0.0000000000000000       -0.0000000000000000     
   628.22188319409315       -0.0000000000000000       -0.0000000000000000     
   628.18449109686674       -0.0000000000000000       -0.0000000000000000     
   628.14896368227096       -0.0000000000000000       -0.0000000000000000     
   628.11544017884262       -0.0000000000000000       -0.0000000000000000     
   628.08405189690245       -0.0000000000000000       -0.0000000000000000     
   628.05492172591835       -0.0000000000000000       -0.0000000000000000     
   628.02816366499962       -0.0000000000000000       -0.0000000000000000     
   628.00388238813355       -0.0000000000000000       -0.0000000000000000     
   627.98217284564316       -0.0000000000000000       -0.0000000000000000     
   627.96311990321192        0.0000000000000000       -0.0000000000000000     
   627.94679801968641        0.0000000000000000       -0.0000000000000000     
   627.93327096473001        0.0000000000000000       -0.0000000000000000     
   627.92259157726460        0.0000000000000000       -0.0000000000000000     
   627.91480156549210        0.0000000000000000       -0.0000000000000000     
   627.90993134915925        0.0000000000000000       -0.0000000000000000     
   627.90799994457336        0.0000000000000000       -0.0000000000000000     
   627.90901489275325        0.0000000000000000       -0.0000000000000000     
   627.91297223093841        0.0000000000000000       -0.0000000000000000     
   627.91985650756203        0.0000000000000000       -0.0000000000000000     
   627.92964084062623        0.0000000000000000       -0.0000000000000000     
   627.94228701929990        0.0000000000000000       -0.0000000000000000     
   627.95774564840087        0.0000000000000000       -0.0000000000000000     
   627.97595633529420        0.0000000000000000       -0.0000000000000000     
   627.99684791859272        0.0000000000000000       -0.0000000000000000     
   628.02033873790640        0.0000000000000000       -0.0000000000000000     
   628.04633694374786        0.0000000000000000       -0.0000000000000000     
   628.07474084656803        0.0000000000000000       -0.0000000000000000     
   628.10543930374479        0.0000000000000000       -0.0000000000000000     
   628.13831214323136        0.0000000000000000       -0.0000000000000000     
   628.17323062241780        0.0000000000000000       -0.0000000000000000     
   628.21005792063977        0.0000000000000000       -0.0000000000000000     
   628.24864966363305        0.0000000000000000       -0.0000000000000000     
   628.28885447810728        0.0000000000000000       -0.0000000000000000     
   628.33051457448971        0.0000000000000000       -0.0000000000000000     
   628.37346635576716        0.0000000000000000       -0.0000000000000000     
   628.41754105024631        0.0000000000000000       -0.0000000000000000     
   628.46256536593273        0.0000000000000000       -0.0000000000000000     
   628.50836216413859        0.0000000000000000       -0.0000000000000000     
   628.55475114981641        0.0000000000000000       -0.0000000000000000     
   628.60154957604107        0.0000000000000000       -0.0000000000000000     
   628.64857295996819        0.0000000000000000       -0.0000000000000000     
   628.69563580753152        0.0000000000000000       -0.0000000000000000     
   628.74255234407485        0.0000000000000000       -0.0000000000000000     
   628.78913724805807        0.0000000000000000       -0.0000000000000000     
   628.83520638493940        0.0000000000000000       -0.0000000000000000     
   628.88057753829617        0.0000000000000000       -0.0000000000000000     
   628.92507113523880        0.0000000000000000       -0.0000000000000000     
   628.96851096314776        0.0000000000000000       -0.0000000000000000     
   629.01072487479007        0.0000000000000000       -0.0000000000000000     
   629.05154547887469        0.0000000000000000       -0.0000000000000000     
   629.09081081314923        0.0000000000000000       -0.0000000000000000     
   629.12836499718469        0.0000000000000000       -0.0000000000000000     
   629.16405886205803        0.0000000000000000       -0.0000000000000000     
   629.19775055421587        0.0000000000000000       -0.0000000000000000     
   629.22930611090214        0.0000000000000000       -0.0000000000000000     
   629.25860000462239        0.0000000000000000       -0.0000000000000000     
   629.28551565425482        0.0000000000000000       -0.0000000000000000     
   629.30994590053308        0.0000000000000000       -0.0000000000000000     
   629.33179344378448        0.0000000000000000       -0.0000000000000000     
   629.35097124195534        0.0000000000000000        0.0000000000000000     
   623.27106552191731        19.587082322216009        0.0000000000000000     
   623.05732983858093        19.570703679422866       0.61503414048517480     
   622.86125013826199        19.535578135921060        1.2290743980292300     
   622.68254075410243        19.481741103689078        1.8415667341281230     
   622.52079497241948        19.409240046998786        2.4519572312488314     
   622.37549053141720        19.318134764473989        3.0596919627853851     
   622.24599602614023        19.208497737793550        3.6642169127766264     
   622.13157817532317        19.080414539938765        4.2649779543324282     
   622.03140990042255        18.933984294847100        4.8614208948049749     
   621.94457916156887        18.769320179393876        5.4529915947146117     
   621.87009848944638        18.586549957791838        6.0391361663038872     
   621.80691514624073        18.385816537789236        6.6193012563589253     
   621.75392184283919        18.167278537472718        7.1929344166156746     
   621.70996793352106        17.931110851054200        7.7594845636738512     
   621.67387100350709        17.677505201752044        8.3184025288889138     
   621.64442875910481        17.406670669777405        8.8691416972205026     
   621.62043112490107        17.118834183514153        9.4111587325042656     
   621.60067244766742        16.814240962242710        9.9439143851045930     
   621.58396370252353        16.493154899207386        10.466874376422677     
   621.56914459359496        16.155858874465146        10.979510353301929     
   621.55509543906192        15.802654987777562        11.481300904017434     
   621.54074872928129        15.433864702811338        11.971732626283654     
   621.52510024667868        15.049828895085277        12.450301236591145     
   621.50721963750379        14.650907797428724        12.916512709213224     
   621.48626032834727        14.237480838179131        13.369884432430355     
   621.46146868464018        13.809946368922667        13.809946368924098     
   621.43219231417277        13.368721280244921        14.236242206910754     
   621.39788742597511        12.914240505679526        14.648330488430611     
   621.35812516364035        12.446956415789902        15.045785701290413     
   621.31259684223642        11.967338106058779        15.428199321478303     
   621.26111802921321        11.475870583958534        15.795180793429559     
   621.20363142198789        10.973053862197323        16.146358436311324     
   621.14020848800840        10.459401966649416        16.481380265502132     
   621.07104984677733        9.9354418688506971        16.799914719649198     
   620.99648438739075        9.4017123541447063        17.101651285071050     
   620.91696712927160        8.8587628375751635        17.386301010806740     
   620.83307584778231        8.3071521404183422        17.653596909266781     
   620.74550649996127        7.7474472408173556        17.903294239180159     
   620.65506749854273        7.1802220123099998        18.135170669322385     
   620.56267289446578        6.6060559641292089        18.349026323315833     
   620.46933453903864        6.0255329970003562        18.544683707579484     
   620.37615330666949        5.4392401877702294        18.721987526237577     
   620.28430946745311        4.8477666155898236        18.880804388442780     
   620.19505230583388        4.2517022415534473        19.021022415100369     
   620.10968908702171        3.6516368526903822        19.142550753370799     
   620.02957347676443        3.0481590800354650        19.245319008556013     
   619.95609352256906        2.4418554991974877        19.329276604024837     
   619.89065930552181        1.8333098204263851        19.394392080690210     
   619.83469037162251        1.2231021736795706        19.440652348209881     
   619.78960305011537       0.61180849263273784        19.468061900537290     
   619.75679776382117       -2.0141098081565894E-012   19.476642008702498     
   619.73764643311597      -0.61175720507180253        19.466429903758076     
   619.73348007109939       -1.2229024582748029        19.437477962688629     
   619.74557666285136       -1.8328807424477127        19.389852909766997     
   619.77514941661877       -2.4411428046013737        19.323635045355378     
   619.82333546949326       -3.0471451828296963        19.238917513511581     
   619.89118512472851       -3.6503501494945541        19.135805618982335     
   619.97965169249187       -4.2502255782606095        19.014416203264403     
   620.08958200056918       -4.8462447436090734        18.874877088403426     
   620.22170763650979       -5.4378860623914882        18.717326596097859     
   620.37663697788480       -6.0246327877877501        18.541913148492768     
   620.55484806282220       -6.6059726667031020        18.348794955802248     
   620.75668234874865       -7.1813975721737053        18.138139794600821     
   620.98233940329658       -7.7504031227473398        17.910124879287157     
   621.23187256757740       -8.3124883010637518        17.664936827858138     
   621.50518562841739       -8.8671550839763729        17.402771721749652     
   621.80203053260334       -9.4139080965327651        17.123835258112120     
   622.12200617259259       -9.9522543019637446        16.828342991504485     
   622.46455826940667       -10.481702739519893        16.516520660620881     
   622.82898037439850       -11.001764321537237        16.188604594319475     
   623.21441600716821       -11.511951700510725        15.844842189915523     
   623.61986194195174       -12.011779216203538        15.485492455442227     
   624.04417264922699       -12.500762931922566        15.110826606387420     
   624.48606589295821       -12.978420768046005        14.721128706296039     
   624.94412947673868       -13.444272739700345        14.316696339603535     
   625.41682912406247       -13.897841304155873        13.897841304151557     
   625.90251746899503       -14.338651822047636        13.464890310052358     
   626.39944412362661       -14.766233134942889        13.018185670930846     
   626.90576677794525       -15.180118260078824        12.558085973103593     
   627.41956327619118       -15.579845201301550        12.084966707970166     
   627.93884460152810       -15.964957873370023        11.599220852813311     
   628.46156868808998       -16.335007134869642        11.101259385346042     
   628.98565496642391       -16.689551923039559        10.591511717721980     
   629.50899953520843       -17.028160481885177        10.070426036348572     
   630.02949083925898       -17.350411673060449        9.5384695347208002     
   630.54502572147840       -17.655896357199516        8.9961285276252241     
   631.05352570496905       -17.944218831696261        8.4439084364486021     
   631.55295335131018       -18.214998309412547        7.8823336369504569     
   632.04132853238514       -18.467870421484069        7.3119471627086261     
   632.51674444647733       -18.702488726325047        6.7333102594967622     
   632.97738320492783       -18.918526206146556        6.1470017880715178     
   633.42153081378592       -19.115676731829783        5.5536174751980338     
   633.84759137577112       -19.293656476860811        4.9537690151800824     
   634.25410034172717       -19.452205261257788        4.3480830266384407     
   634.63973664761374       -19.591087807012499        3.7371998717434511     
   635.00333358303999       -19.710094887530865        3.1217723475011070     
   635.34388825025803       -19.809044354878932        2.5024642609592451     
   635.66056948828418       -19.887782030305729        1.8799489022870721     
   635.95272415515126       -19.946182445491942        1.2549074315346558     
   636.21988168186851       -19.984149424225908       0.62802719645170957     
   636.46175683409672       -20.001616496688307       -4.1367964710719974E-012
   636.67825064136741       -19.998547141181355      -0.62847966294344593     
   636.86944947838333       -19.974934850906280       -1.2567163795623302     
   637.03562230797445       -19.930803026211890       -1.8840155837335635     
   637.17721612015555       -19.866204695542937       -2.5096852912754342     
   637.29484962583524       -19.781222071043612       -3.1330377866620172     
   637.38930528660376       -19.675965947359366       -3.7533912429683820     
   637.46151978319153       -19.550574954570848       -4.3700712582168606     
   637.51257304421836       -19.405214678336701       -4.9824122929687436     
   637.54367597344481       -19.240076662174769       -5.5897589959474461     
   637.55615702759974       -19.055377308339207       -6.1914674066337865     
   637.55144780783235       -18.851356694929979       -6.7869060260896905     
   637.53106783585190       -18.628277327686920       -7.3754567496878130     
   637.49660869084357       -18.386422845367544       -7.9565156578965084     
   637.44971768539870       -18.126096697691743       -8.5294936637383021     
   637.39208125809409       -17.847620814569996       -9.0938170179552476     
   637.32540825723788       -17.551334284736047       -9.6489276752295901     
   637.25141328490952       -17.237592061007557       -10.194283526982113     
   637.17180026308279       -16.906763708231441       -10.729358508268520     
   637.08824637463874       -16.559232208570222       -11.253642588087255     
   637.00238652179189       -16.195392837190898       -11.766641653978738     
   636.91579843321210       -15.815652119667002       -12.267877303120422     
   636.82998853922390       -15.420426880537738       -12.756886553195287     
   636.74637872221660       -15.010143390522872       -13.233221487129194     
   636.66629403706884       -14.585236617904476       -13.696448846357470     
   636.59095148419863       -14.146149587590187       -14.146149587597510     
   636.52144990598549       -13.693332849397269       -14.581918418182203     
   636.45876106592834       -13.227244055169782       -15.003363324860251     
   636.40372195908367       -12.748347642485665       -15.410105110607359     
   636.35702839215344       -12.257114620947295       -15.801776953433142     
   636.31922986203892       -11.754022455394464       -16.178024000426284     
   636.29072575280077       -11.239555038848483       -16.538503009374374     
   636.27176286260533       -10.714202746600870       -16.882882049236752     
   636.26243426443568       -10.178462561610452       -17.210840269559053     
   636.26267949691635       -9.6328382602782181       -17.522067747608276     
   636.27228607447728       -9.0778406467346091       -17.816265420595329     
   636.29089229913552       -8.5139878230088328       -18.093145108850180     
   636.31799134929827       -7.9418054818565356       -18.352429634240636     
   636.35293661403898       -7.3618272086090339       -18.593853036490557     
   636.39494823423854       -6.7745947781764588       -18.817160888376517     
   636.44312080465090       -6.1806584332953607       -19.022110709075253     
   636.49643218337201       -5.5805771302597202       -19.208472473218801     
   636.55375334726659       -4.9749187387186566       -19.376029211504761     
   636.61385922368243       -4.3642601826627843       -19.524577697028285     
   636.67544042026520       -3.7491875104579186       -19.653929209868860     
   636.73711576597350       -3.1302958827138023       -19.763910370903698     
   636.79744556754986       -2.5081894678963672       -19.854364034352134     
   636.85494547691974       -1.8834812368933405       -19.925150227209091     
   636.90810085637906       -1.2567926492173997       -19.976147122523965     
   636.95538152024039      -0.62875322516201326       -20.007252032451074     
   636.99525672402558        6.2192860204699490E-012  -20.018382406163312     
   637.02621026556710       0.62882314184889332       -20.009476817105945     
   637.04675555674771        1.2570662526083374       -19.980495923692569     
   637.05545052032198        1.8840742251361242       -19.931423387429849     
   637.05091216355004        2.5091878108684318       -19.862266732614465     
   637.03183067942598        3.1317447457769467       -19.773058132183799     
   636.99698292732683        3.7510809762377972       -19.663855105025270     
   636.94524514804402        4.3665319748670361       -19.534741111054593     
   636.87560477350428        4.9774341346152484       -19.385826031650410     
   636.78717119907822        5.5831262278311682       -19.217246524565361     
   636.67918539620757        6.1829509156373446       -19.029166244198276     
   636.55102825504855        6.7762562918392124       -18.821775920077368     
   636.40222756082051        7.3623974447462750       -18.595293288534425     
   636.23246352335127        7.9407380197402091       -18.349962874802838     
   636.04157279663491        8.5106517651980447       -18.086055625101213     
   635.82955094381896        9.0715240444783891       -17.803868390620817     
   635.59655332249542        9.6227532971034204       -17.503723267668502     
   635.34289438515032        10.163752433015102       -17.185966800475207     
   635.06904540970538        10.693950144831120       -16.850969055316142     
   634.77563069488815        11.212792124355541       -16.499122576554825     
   634.46342227424236        11.719742171175781       -16.130841236978000     
   634.13333322063704        12.214283182969838       -15.746558996296185     
   633.78640962973861        12.695918019109675       -15.346728582916180     
   633.42382138582877        13.164170231237714       -14.931820115024454     
   633.04685182629385        13.618584656662534       -14.502319677641887     
   632.65688643192686        14.058727872623241       -14.058727872613057     
   632.25540067871600        14.484188511659367       -13.601558358481839     