 VARIABLES = "x_1", "x_2", "x_3"
 ZONE F = POINT , I =         201  , J =         101
   1204.2072699752687        0.0000000000000000        0.0000000000000000     
   1204.2072699752687        0.0000000000000000        0.0000000000000000     
   1204.2072699752687        0.0000000000000000        0.0000000000000000     
   1204.2072699752687        0.0000000000000000        0.0000000000000000     
   1204.2072699752687        0.0000000000000000        0.0000000000000000     
   1204.2072699752687        0.0000000000000000        0.0000000000000000     
   1204.2072699752687        0.0000000000000000        0.0000000000000000     
   1204.2072699752687        0.0000000000000000        0.0000000000000000     
   1204.2072699752687        0.0000000000000000        0.0000000000000000     
   1204.2072699752687        0.0000000000000000        0.0000000000000000     
   1204.2072699752687        0.0000000000000000        0.0000000000000000     
   1204.2072699752687        0.0000000000000000        0.0000000000000000     
   1204.2072699752687        0.0000000000000000        0.0000000000000000     
   1204.2072699752687        0.0000000000000000        0.0000000000000000     
   1204.2072699752687        0.0000000000000000        0.0000000000000000     
   1204.2072699752687        0.0000000000000000        0.0000000000000000     
   1204.2072699752687        0.0000000000000000        0.0000000000000000     
   1204.2072699752687        0.0000000000000000        0.0000000000000000     
   1204.2072699752687        0.0000000000000000        0.0000000000000000     
   1204.2072699752687        0.0000000000000000        0.0000000000000000     
   1204.2072699752687        0.0000000000000000        0.0000000000000000     
   1204.2072699752687        0.0000000000000000        0.0000000000000000     
   1204.2072699752687        0.0000000000000000        0.0000000000000000     
   1204.2072699752687        0.0000000000000000        0.0000000000000000     
   1204.2072699752687        0.0000000000000000        0.0000000000000000     
   1204.2072699752687        0.0000000000000000        0.0000000000000000     
   1204.2072699752687        0.0000000000000000        0.0000000000000000     
   1204.2072699752687        0.0000000000000000        0.0000000000000000     
   1204.2072699752687        0.0000000000000000        0.0000000000000000     
   1204.2072699752687        0.0000000000000000        0.0000000000000000     
   1204.2072699752687        0.0000000000000000        0.0000000000000000     
   1204.2072699752687        0.0000000000000000        0.0000000000000000     
   1204.2072699752687        0.0000000000000000        0.0000000000000000     
   1204.2072699752687        0.0000000000000000        0.0000000000000000     
   1204.2072699752687        0.0000000000000000        0.0000000000000000     
   1204.2072699752687        0.0000000000000000        0.0000000000000000     
   1204.2072699752687        0.0000000000000000        0.0000000000000000     
   1204.2072699752687        0.0000000000000000        0.0000000000000000     
   1204.2072699752687        0.0000000000000000        0.0000000000000000     
   1204.2072699752687        0.0000000000000000        0.0000000000000000     
   1204.2072699752687        0.0000000000000000        0.0000000000000000     
   1204.2072699752687        0.0000000000000000        0.0000000000000000     
   1204.2072699752687        0.0000000000000000        0.0000000000000000     
   1204.2072699752687        0.0000000000000000        0.0000000000000000     
   1204.2072699752687        0.0000000000000000        0.0000000000000000     
   1204.2072699752687        0.0000000000000000        0.0000000000000000     
   1204.2072699752687        0.0000000000000000        0.0000000000000000     
   1204.2072699752687        0.0000000000000000        0.0000000000000000     
   1204.2072699752687        0.0000000000000000        0.0000000000000000     
   1204.2072699752687        0.0000000000000000        0.0000000000000000     
   1204.2072699752687       -0.0000000000000000        0.0000000000000000     
   1204.2072699752687       -0.0000000000000000        0.0000000000000000     
   1204.2072699752687       -0.0000000000000000        0.0000000000000000     
   1204.2072699752687       -0.0000000000000000        0.0000000000000000     
   1204.2072699752687       -0.0000000000000000        0.0000000000000000     
   1204.2072699752687       -0.0000000000000000        0.0000000000000000     
   1204.2072699752687       -0.0000000000000000        0.0000000000000000     
   1204.2072699752687       -0.0000000000000000        0.0000000000000000     
   1204.2072699752687       -0.0000000000000000        0.0000000000000000     
   1204.2072699752687       -0.0000000000000000        0.0000000000000000     
   1204.2072699752687       -0.0000000000000000        0.0000000000000000     
   1204.2072699752687       -0.0000000000000000        0.0000000000000000     
   1204.2072699752687       -0.0000000000000000        0.0000000000000000     
   1204.2072699752687       -0.0000000000000000        0.0000000000000000     
   1204.2072699752687       -0.0000000000000000        0.0000000000000000     
   1204.2072699752687       -0.0000000000000000        0.0000000000000000     
   1204.2072699752687       -0.0000000000000000        0.0000000000000000     
   1204.2072699752687       -0.0000000000000000        0.0000000000000000     
   1204.2072699752687       -0.0000000000000000        0.0000000000000000     
   1204.2072699752687       -0.0000000000000000        0.0000000000000000     
   1204.2072699752687       -0.0000000000000000        0.0000000000000000     
   1204.2072699752687       -0.0000000000000000        0.0000000000000000     
   1204.2072699752687       -0.0000000000000000        0.0000000000000000     
   1204.2072699752687       -0.0000000000000000        0.0000000000000000     
   1204.2072699752687       -0.0000000000000000        0.0000000000000000     
   1204.2072699752687       -0.0000000000000000        0.0000000000000000     
   1204.2072699752687       -0.0000000000000000        0.0000000000000000     
   1204.2072699752687       -0.0000000000000000        0.0000000000000000     
   1204.2072699752687       -0.0000000000000000        0.0000000000000000     
   1204.2072699752687       -0.0000000000000000        0.0000000000000000     
   1204.2072699752687       -0.0000000000000000        0.0000000000000000     
   1204.2072699752687       -0.0000000000000000        0.0000000000000000     
   1204.2072699752687       -0.0000000000000000        0.0000000000000000     
   1204.2072699752687       -0.0000000000000000        0.0000000000000000     
   1204.2072699752687       -0.0000000000000000        0.0000000000000000     
   1204.2072699752687       -0.0000000000000000        0.0000000000000000     
   1204.2072699752687       -0.0000000000000000        0.0000000000000000     
   1204.2072699752687       -0.0000000000000000        0.0000000000000000     
   1204.2072699752687       -0.0000000000000000        0.0000000000000000     
   1204.2072699752687       -0.0000000000000000        0.0000000000000000     
   1204.2072699752687       -0.0000000000000000        0.0000000000000000     
   1204.2072699752687       -0.0000000000000000        0.0000000000000000     
   1204.2072699752687       -0.0000000000000000        0.0000000000000000     
   1204.2072699752687       -0.0000000000000000        0.0000000000000000     
   1204.2072699752687       -0.0000000000000000        0.0000000000000000     
   1204.2072699752687       -0.0000000000000000        0.0000000000000000     
   1204.2072699752687       -0.0000000000000000        0.0000000000000000     
   1204.2072699752687       -0.0000000000000000        0.0000000000000000     
   1204.2072699752687       -0.0000000000000000        0.0000000000000000     
   1204.2072699752687       -0.0000000000000000        0.0000000000000000     
   1204.2072699752687       -0.0000000000000000       -0.0000000000000000     
   1204.2072699752687       -0.0000000000000000       -0.0000000000000000     
   1204.2072699752687       -0.0000000000000000       -0.0000000000000000     
   1204.2072699752687       -0.0000000000000000       -0.0000000000000000     
   1204.2072699752687       -0.0000000000000000       -0.0000000000000000     
   1204.2072699752687       -0.0000000000000000       -0.0000000000000000     
   1204.2072699752687       -0.0000000000000000       -0.0000000000000000     
   1204.2072699752687       -0.0000000000000000       -0.0000000000000000     
   1204.2072699752687       -0.0000000000000000       -0.0000000000000000     
   1204.2072699752687       -0.0000000000000000       -0.0000000000000000     
   1204.2072699752687       -0.0000000000000000       -0.0000000000000000     
   1204.2072699752687       -0.0000000000000000       -0.0000000000000000     
   1204.2072699752687       -0.0000000000000000       -0.0000000000000000     
   1204.2072699752687       -0.0000000000000000       -0.0000000000000000     
   1204.2072699752687       -0.0000000000000000       -0.0000000000000000     
   1204.2072699752687       -0.0000000000000000       -0.0000000000000000     
   1204.2072699752687       -0.0000000000000000       -0.0000000000000000     
   1204.2072699752687       -0.0000000000000000       -0.0000000000000000     
   1204.2072699752687       -0.0000000000000000       -0.0000000000000000     
   1204.2072699752687       -0.0000000000000000       -0.0000000000000000     
   1204.2072699752687       -0.0000000000000000       -0.0000000000000000     
   1204.2072699752687       -0.0000000000000000       -0.0000000000000000     
   1204.2072699752687       -0.0000000000000000       -0.0000000000000000     
   1204.2072699752687       -0.0000000000000000       -0.0000000000000000     
   1204.2072699752687       -0.0000000000000000       -0.0000000000000000     
   1204.2072699752687       -0.0000000000000000       -0.0000000000000000     
   1204.2072699752687       -0.0000000000000000       -0.0000000000000000     
   1204.2072699752687       -0.0000000000000000       -0.0000000000000000     
   1204.2072699752687       -0.0000000000000000       -0.0000000000000000     
   1204.2072699752687       -0.0000000000000000       -0.0000000000000000     
   1204.2072699752687       -0.0000000000000000       -0.0000000000000000     
   1204.2072699752687       -0.0000000000000000       -0.0000000000000000     
   1204.2072699752687       -0.0000000000000000       -0.0000000000000000     
   1204.2072699752687       -0.0000000000000000       -0.0000000000000000     
   1204.2072699752687       -0.0000000000000000       -0.0000000000000000     
   1204.2072699752687       -0.0000000000000000       -0.0000000000000000     
   1204.2072699752687       -0.0000000000000000       -0.0000000000000000     
   1204.2072699752687       -0.0000000000000000       -0.0000000000000000     
   1204.2072699752687       -0.0000000000000000       -0.0000000000000000     
   1204.2072699752687       -0.0000000000000000       -0.0000000000000000     
   1204.2072699752687       -0.0000000000000000       -0.0000000000000000     
   1204.2072699752687       -0.0000000000000000       -0.0000000000000000     
   1204.2072699752687       -0.0000000000000000       -0.0000000000000000     
   1204.2072699752687       -0.0000000000000000       -0.0000000000000000     
   1204.2072699752687       -0.0000000000000000       -0.0000000000000000     
   1204.2072699752687       -0.0000000000000000       -0.0000000000000000     
   1204.2072699752687       -0.0000000000000000       -0.0000000000000000     
   1204.2072699752687       -0.0000000000000000       -0.0000000000000000     
   1204.2072699752687       -0.0000000000000000       -0.0000000000000000     
   1204.2072699752687       -0.0000000000000000       -0.0000000000000000     
   1204.2072699752687        0.0000000000000000       -0.0000000000000000     
   1204.2072699752687        0.0000000000000000       -0.0000000000000000     
   1204.2072699752687        0.0000000000000000       -0.0000000000000000     
   1204.2072699752687        0.0000000000000000       -0.0000000000000000     
   1204.2072699752687        0.0000000000000000       -0.0000000000000000     
   1204.2072699752687        0.0000000000000000       -0.0000000000000000     
   1204.2072699752687        0.0000000000000000       -0.0000000000000000     
   1204.2072699752687        0.0000000000000000       -0.0000000000000000     
   1204.2072699752687        0.0000000000000000       -0.0000000000000000     
   1204.2072699752687        0.0000000000000000       -0.0000000000000000     
   1204.2072699752687        0.0000000000000000       -0.0000000000000000     
   1204.2072699752687        0.0000000000000000       -0.0000000000000000     
   1204.2072699752687        0.0000000000000000       -0.0000000000000000     
   1204.2072699752687        0.0000000000000000       -0.0000000000000000     
   1204.2072699752687        0.0000000000000000       -0.0000000000000000     
   1204.2072699752687        0.0000000000000000       -0.0000000000000000     
   1204.2072699752687        0.0000000000000000       -0.0000000000000000     
   1204.2072699752687        0.0000000000000000       -0.0000000000000000     
   1204.2072699752687        0.0000000000000000       -0.0000000000000000     
   1204.2072699752687        0.0000000000000000       -0.0000000000000000     
   1204.2072699752687        0.0000000000000000       -0.0000000000000000     
   1204.2072699752687        0.0000000000000000       -0.0000000000000000     
   1204.2072699752687        0.0000000000000000       -0.0000000000000000     
   1204.2072699752687        0.0000000000000000       -0.0000000000000000     
   1204.2072699752687        0.0000000000000000       -0.0000000000000000     
   1204.2072699752687        0.0000000000000000       -0.0000000000000000     
   1204.2072699752687        0.0000000000000000       -0.0000000000000000     
   1204.2072699752687        0.0000000000000000       -0.0000000000000000     
   1204.2072699752687        0.0000000000000000       -0.0000000000000000     
   1204.2072699752687        0.0000000000000000       -0.0000000000000000     
   1204.2072699752687        0.0000000000000000       -0.0000000000000000     
   1204.2072699752687        0.0000000000000000       -0.0000000000000000     
   1204.2072699752687        0.0000000000000000       -0.0000000000000000     
   1204.2072699752687        0.0000000000000000       -0.0000000000000000     
   1204.2072699752687        0.0000000000000000       -0.0000000000000000     
   1204.2072699752687        0.0000000000000000       -0.0000000000000000     
   1204.2072699752687        0.0000000000000000       -0.0000000000000000     
   1204.2072699752687        0.0000000000000000       -0.0000000000000000     
   1204.2072699752687        0.0000000000000000       -0.0000000000000000     
   1204.2072699752687        0.0000000000000000       -0.0000000000000000     
   1204.2072699752687        0.0000000000000000       -0.0000000000000000     
   1204.2072699752687        0.0000000000000000       -0.0000000000000000     
   1204.2072699752687        0.0000000000000000       -0.0000000000000000     
   1204.2072699752687        0.0000000000000000       -0.0000000000000000     
   1204.2072699752687        0.0000000000000000       -0.0000000000000000     
   1204.2072699752687        0.0000000000000000       -0.0000000000000000     
   1204.2072699752687        0.0000000000000000       -0.0000000000000000     
   1204.2072699752687        0.0000000000000000       -0.0000000000000000     
   1204.2072699752687        0.0000000000000000       -0.0000000000000000     
   1204.2072699752687        0.0000000000000000       -0.0000000000000000     
   1204.2072699752687        0.0000000000000000        0.0000000000000000     
   1180.7041556679815        37.105122914514716        0.0000000000000000     
   1182.0283648491450        37.128408191792865        1.1668072336014976     
   1183.3771563682058        37.115741101832008        2.3351245012945268     
   1184.7493952248144        37.067011647009913        3.5038642192892668     
   1186.1439227193780        36.982141499978596        4.6719309492986296     
   1187.5595568182175        36.861084519675913        5.8382222414046892     
   1188.9950925473070        36.703827250473992        7.0016295084962321     
   1190.4493024173591        36.510389402710921        8.1610389323938719     
   1191.9209368829877        36.280824312802274        9.3153324016966828     
   1193.4087248385838        36.015219381080271        10.463388481296374     
   1194.9113741534659        35.713696485463032        11.604083413411677     
   1196.4275722487509        35.376412369014325        12.736292149896807     
   1197.9559867182661        35.003558999415361        13.858889415473088     
   1199.4952659956900        34.595363898336792        14.970750801422984     
   1201.0440400699474        34.152090438669916        16.070753889169726     
   1202.6009212507106        33.674038107552867        17.157779403044717     
   1204.1645049856770        33.161542733110863        18.230712391418479     
   1205.7333707310931        32.614976672819722        19.288443435239337     
   1207.3060828767791        32.034748961399544        20.329869882888179     
   1208.8811917266755        31.421305416151554        21.353897110116915     
   1210.4572345357174        30.775128697666137        22.359439803694631     
   1212.0327366035658        30.096738323854222        23.345423267237486     
   1213.6062124255022        29.386690635289312        24.310784747549171     
   1215.1761669004973        28.645578709891669        25.254474779646056     
   1216.7410965962256        27.874032225043017        26.175458548489029     
   1218.2994910705086        27.072717265287370        27.072717265290173     
   1219.8498342483927        26.242336073852929        27.945249556109925     
   1221.3906058538030        25.383626746321472        28.792072860309375     
   1222.9202828944269        24.497362864875438        29.612224836273349     
   1224.4373411982122        23.584353071668705        30.404764771675339     
   1225.9402569995978        22.645440579995711        31.168774995414413     
   1227.4275085733188        21.681502622073957        31.903362288219732     
   1228.8975779133848        20.693449832407865        32.607659288790103     
   1230.3489524545707        19.682225565866418        33.280825892216178     
   1231.7801268335245        18.648805149782952        33.922050637321213     
   1233.1896046863671        17.594195069572265        34.530552079455624     
   1234.5759004794513        16.519432087557345        35.105580145190245     
   1235.9375413697314        15.425582294904794        35.646417465275007     
   1237.2730690910334        14.313740096783546        36.152380682165109     
   1238.5810418623221        13.185027131084686        36.622821728364990     
   1239.8600363139276        12.040591121270928        37.057129071804503     
   1241.1086494275519        10.881604664160127        37.454728924440090     
   1242.3255004857626        9.7092639536883301        37.815086410269295     
   1243.5092330265816        8.5247874419423066        38.137706688958026     
   1244.6585167986987        7.3294144389981648        38.422136031309051     
   1245.7720497127921        6.1244036533504866        38.667962842846329     
   1246.8485597843726        4.9110316749634464        38.874818631853266     
   1247.8868070635717        3.6905914032213469        39.042378918284733     
   1248.8855855472791        2.4643904222981416        39.170364080072055     
   1249.8437250690401        1.2337493267036066        39.258540133456748     
   1250.7600931621762       -4.0647689228715827E-012   39.306719444123800     
   1251.6335968916098       -1.2355161501246879        39.314761366055961     
   1252.4631846499615       -2.4714499969106201        39.282572805199230     
   1253.2478479135455       -3.7064465362120704        39.210108705213599     
   1253.9866229539869       -4.9391467608404529        39.097372452782551     
   1254.6785925012734       -6.1681895636340878        38.944416200168817     
   1255.3228873541814       -7.3922136650406660        38.751341102932244     
   1255.9186879341148       -8.6098595608758473        38.518297470965535     
   1256.4652257785422       -9.8197714857774514        38.245484831256647     
   1256.9617849703363       -11.020599387751192        37.933151901049293     
   1257.4077034994759       -12.211000909097562        37.581596470345730     
   1257.8023745537021       -13.389643368920789        37.191165192976840     
   1258.1452477348826       -14.555205742350852        36.762253285752301     
   1258.4358301979798       -15.706380631558080        36.295304135497240     
   1258.6736877096898       -16.841876223608338        35.790808814079739     
   1258.8584456239562       -17.960418230194520        35.249305501834279     
   1258.9897897717481       -19.060751804288131        34.671378820089302     
   1259.0674672626267       -20.141643428782317        34.057659073809113     
   1259.0912871958062       -21.201882772246098        33.408821405662614     
   1259.0611212785741       -22.240284506977432        32.725584863130400     
   1258.9769043500885       -23.255690084630562        32.008711380556505     
   1258.8386348087581       -24.246969464800927        31.259004678341604     
   1258.6463749415586       -25.213022792077570        30.477309081757259     
   1258.4002511538220       -26.152782017218801        29.664508262136334     
   1258.1004540981992       -27.065212458270828        28.821523903460655     
   1257.7472387016874       -27.949314297631169        27.949314297622482     
   1257.3409240897761       -28.804124011257066        27.048872871880327     
   1256.8818934069643       -29.628715726434734        26.121226652260077     
   1256.3705935330865       -30.422202504755507        25.167434666869536     
   1255.8075346950834       -31.183737547190333        24.188586293295891     
   1255.1932899740520       -31.912515318412428        23.185799554441100     
   1254.5284947076238       -32.607772587788894        22.160219367318302     
   1253.8138457879329       -33.268789384744636        21.113015749482940     
   1253.0501008556598       -33.894889866493791        20.045381987903212     
   1252.2380773908728       -34.485443096435304        18.958532775186555     
   1251.3786517016190       -35.039863731817334        17.853702318170004     
   1250.4727578114669       -35.557612619589861        16.732142423953263     
   1249.5213862474623       -36.038197299683539        15.595120568502212     
   1248.5255827302014       -36.481172415274735        14.443917952978389     
   1247.4864467680065       -36.886140029920064        13.279827552955716     
   1246.4051301574495       -37.252749851766964        12.104152165668891     
   1245.2828353927350       -37.580699365367764        10.918202460399746     
   1244.1208139867479       -37.869733871943374        9.7232950370469133     
   1242.9203647068232       -38.119646439255177        8.5207504978418367     
   1241.6828317285772       -38.330277762549784        7.3118915370701005     
   1240.4096027114263       -38.501515938340347        6.0980410535324898     
   1239.1021067996526       -38.633296153074753        4.8805202903345588     
   1237.7618125531690       -38.725600289019134        3.6606470064289152     
   1236.3902258123624       -38.778456449948060        2.4397336841507373     
   1234.9888875016552       -38.791938409482981        1.2190857767857524     
   1233.5593713766320       -38.766164985153594       -8.0177386929766665E-012
   1232.1032817198111       -38.701299341474517       -1.2162373293366400     
   1230.6222509903273       -38.597548225528087       -2.4283519034239718     
   1229.1179374329668       -38.455161138723703       -3.6350829801016240     
   1227.5920226521773       -38.274429448564668       -4.8351848826249535     
   1226.0462091567706       -38.055685444391024       -6.0274284402849592     
   1224.4822178812010       -37.799301341186080       -7.2106023675737969     
   1222.9017856893431       -37.505688235628071       -8.3835145799556496     
   1221.3066628667957       -37.175295018643226       -9.5449934445921780     
   1219.6986106077441       -36.808607248765981       -10.693888964672620     
   1218.0793985024495       -36.406145990641335       -11.829073896299185     
   1216.4508020313970       -35.968466623009682       -12.949444797178140     
   1214.8146000720983       -35.496157620498508       -14.053923006663549     
   1213.1725724244736       -34.989839313507602       -15.141455556992597     
   1211.5264973606322       -34.450162630415761       -16.211016015836684     
   1209.8781492047431       -33.877807826257467       -17.261605260569866     
   1208.2292959485428       -33.273483201920222       -18.292252184924028     
   1206.5816969078426       -32.637923817795915       -19.302014338956699     
   1204.9371004251939       -31.971890205685558       -20.289978503501739     
   1203.2972416236541       -31.276167082606722       -21.255261200503814     
   1201.6638402163426       -30.551562069988080       -22.197009140853435     
   1200.0385983762155       -29.798904421557094       -23.114399611539515     
   1198.4231986702082       -29.019043763037008       -24.006640804120405     
   1196.8193020615890       -28.212848846568814       -24.872972086680189     
   1195.2285459840691       -27.381206322564616       -25.712664221586518     
   1193.6525424908791       -26.525019531482393       -26.525019531496120     
   1192.0928764817022       -25.645207317790149       -27.309372016166645     
   1190.5511040100080       -24.742702868161089       -28.065087422726751     
   1189.0287506729871       -23.818452575712961       -28.791563272131409     
   1187.5273100859515       -22.873414931875068       -29.488228844586175     
   1186.0482424427048       -21.908559447237231       -30.154545126762308     
   1184.5929731630474       -20.924865602507378       -30.790004723645875     
   1183.1628916282414       -19.923321830481562       -31.394131737866974     
   1181.7593500049134       -18.904924529709035       -31.966481619342964     
   1180.3836621575620       -17.870677110323566       -32.506640988040225     
   1179.0371026494829       -16.821589072303013       -33.014227432615350     
   1177.7209058316473       -15.758675116222784       -33.488889287638514     
   1176.4362650187395       -14.682954286376484       -33.930305392030775     
   1175.1843317512887       -13.595449145958723       -34.338184831262943     
   1173.9662151425459       -12.497184983833263       -34.712266665769910     
   1172.7829813084993       -11.389189052252354       -35.052319647928208     
   1171.6356528791721       -10.272489834743860       -35.358141929831937     
   1170.5252085891259       -9.1481163432489758       -35.629560763979427     
   1169.4525829448698       -8.0170974434679394       -35.866432198854838     
   1168.4186659666857       -6.8804612072621838       -36.068640771254273     
   1167.4243030021980       -5.7392342908606953       -36.236099197067027     
   1166.4702946088630       -4.5944413375344944       -36.368748062080037     
   1165.5573965023946       -3.4471044033276987       -36.466555514228283     
   1164.6863195680305       -2.2982424043735690       -36.529516958567221     
   1163.8577299314347       -1.1488705842747879       -36.557654756096369     
   1163.0722490859246        1.1355624556354420E-011  -36.551017927415444     
   1162.3304540726599        1.1473629753663024       -36.509681862049831     
   1161.6328777103563        2.2922171343825619       -36.433748034137054     
   1160.9800088710467        3.4335669035178764       -36.323343725025907     
   1160.3722927984061        4.5704227991305695       -36.178621753201938     
   1159.8101314651115        5.7018018729782787       -35.999760211818945     
   1159.2938839657536        6.8267281487405205       -35.786962213987927     
   1158.8238669418088        7.9442330510911887       -35.540455645850457     
   1158.4003550352134        9.0533558288093623       -35.260492927344991     
   1158.0235813671566        10.153143973367962       -34.947350780462671     
   1157.6937380387312        11.242653634388518       -34.601330004682090     
   1157.4109766501786        12.320950033289556       -34.222755259173191     
   1157.1754088355390        13.387107876393765       -33.811974851266712     
   1156.9871068096129        14.440211768689672       -33.369360530599089     
   1156.8461039242416        15.479356629371281       -32.895307288263069     
   1156.7523952310357        16.503648110204775       -32.390233160220745     
   1156.7059380478033        17.512203017691633       -31.854579034170278     
   1156.7066525260489        18.504149739919029       -31.288808458996616     
   1156.7544222170814        19.478628678905139       -30.693407455885193     
   1156.8490946343884        20.434792689165480       -30.068884330128956     
   1156.9904818101161        21.371807523141893       -29.415769482620572     
   1157.1783608436274        22.288852284052975       -28.734615219984935     
   1157.4124744403150        23.185119886640777       -28.025995562280780     
   1157.6925314389830        24.059817526206235       -27.290506047174254     
   1158.0182073263090        24.912167156242838       -26.528763529471153     
   1158.3891447370838        25.741405974898427       -25.741405974879779     
   1158.8049539390950        26.546786920413602       -24.929092246868407     