 VARIABLES = "x_1", "x_2", "x_3"
 ZONE F = POINT , I =         201  , J =         101
   901.53348583900868        0.0000000000000000        0.0000000000000000     
   901.97052488357656        0.0000000000000000        0.0000000000000000     
   902.48944983501610        0.0000000000000000        0.0000000000000000     
   903.08862982176322        0.0000000000000000        0.0000000000000000     
   903.76617014446640        0.0000000000000000        0.0000000000000000     
   904.51991329039504        0.0000000000000000        0.0000000000000000     
   905.34744029004275        0.0000000000000000        0.0000000000000000     
   906.24607249172698        0.0000000000000000        0.0000000000000000     
   907.21287383741821        0.0000000000000000        0.0000000000000000     
   908.24465372971099        0.0000000000000000        0.0000000000000000     
   909.33797058557366        0.0000000000000000        0.0000000000000000     
   910.48913617719211        0.0000000000000000        0.0000000000000000     
   911.69422086360362        0.0000000000000000        0.0000000000000000     
   912.94905981879344        0.0000000000000000        0.0000000000000000     
   914.24926036224019        0.0000000000000000        0.0000000000000000     
   915.59021049640444        0.0000000000000000        0.0000000000000000     
   916.96708875212744        0.0000000000000000        0.0000000000000000     
   918.37487543719385        0.0000000000000000        0.0000000000000000     
   919.80836537522680        0.0000000000000000        0.0000000000000000     
   921.26218221148645        0.0000000000000000        0.0000000000000000     
   922.73079434894692        0.0000000000000000        0.0000000000000000     
   924.20853256214002        0.0000000000000000        0.0000000000000000     
   925.68960931768834        0.0000000000000000        0.0000000000000000     
   927.16813980926486        0.0000000000000000        0.0000000000000000     
   928.63816469100004        0.0000000000000000        0.0000000000000000     
   930.09367446736883        0.0000000000000000        0.0000000000000000     
   931.52863546958542        0.0000000000000000        0.0000000000000000     
   932.93701731889780        0.0000000000000000        0.0000000000000000     
   934.31282174640342        0.0000000000000000        0.0000000000000000     
   935.65011260763595        0.0000000000000000        0.0000000000000000     
   936.94304689886417        0.0000000000000000        0.0000000000000000     
   938.18590655148535        0.0000000000000000        0.0000000000000000     
   939.37313075191003        0.0000000000000000        0.0000000000000000     
   940.49934850763498        0.0000000000000000        0.0000000000000000     
   941.55941115672101        0.0000000000000000        0.0000000000000000     
   942.54842449832893        0.0000000000000000        0.0000000000000000     
   943.46178020715149        0.0000000000000000        0.0000000000000000     
   944.29518618516931        0.0000000000000000        0.0000000000000000     
   945.04469550074100        0.0000000000000000        0.0000000000000000     
   945.70673356806401        0.0000000000000000        0.0000000000000000     
   946.27812322980924        0.0000000000000000        0.0000000000000000     
   946.75610742233368        0.0000000000000000        0.0000000000000000     
   947.13836912624470        0.0000000000000000        0.0000000000000000     
   947.42304833492665        0.0000000000000000        0.0000000000000000     
   947.60875580945117        0.0000000000000000        0.0000000000000000     
   947.69458342940959        0.0000000000000000        0.0000000000000000     
   947.68011099473085        0.0000000000000000        0.0000000000000000     
   947.56540938251408        0.0000000000000000        0.0000000000000000     
   947.35104001412810        0.0000000000000000        0.0000000000000000     
   947.03805064014080        0.0000000000000000        0.0000000000000000     
   946.62796750276709       -0.0000000000000000        0.0000000000000000     
   946.12278398621243       -0.0000000000000000        0.0000000000000000     
   945.52494591337995       -0.0000000000000000        0.0000000000000000     
   944.83733369175684       -0.0000000000000000        0.0000000000000000     
   944.06324155096797       -0.0000000000000000        0.0000000000000000     
   943.20635414862454       -0.0000000000000000        0.0000000000000000     
   942.27072084912459       -0.0000000000000000        0.0000000000000000     
   941.26072800147995       -0.0000000000000000        0.0000000000000000     
   940.18106955689609       -0.0000000000000000        0.0000000000000000     
   939.03671637461287       -0.0000000000000000        0.0000000000000000     
   937.83288456566231       -0.0000000000000000        0.0000000000000000     
   936.57500321898647       -0.0000000000000000        0.0000000000000000     
   935.26868184333614       -0.0000000000000000        0.0000000000000000     
   933.91967784210112       -0.0000000000000000        0.0000000000000000     
   932.53386431746333       -0.0000000000000000        0.0000000000000000     
   931.11719847575091       -0.0000000000000000        0.0000000000000000     
   929.67569087845118       -0.0000000000000000        0.0000000000000000     
   928.21537575380216       -0.0000000000000000        0.0000000000000000     
   926.74228255303967       -0.0000000000000000        0.0000000000000000     
   925.26240890397582       -0.0000000000000000        0.0000000000000000     
   923.78169508332621       -0.0000000000000000        0.0000000000000000     
   922.30600009870386       -0.0000000000000000        0.0000000000000000     
   920.84107944199104       -0.0000000000000000        0.0000000000000000     
   919.39256454833969       -0.0000000000000000        0.0000000000000000     
   917.96594396968806       -0.0000000000000000        0.0000000000000000     
   916.56654624869066       -0.0000000000000000        0.0000000000000000     
   915.19952445850015       -0.0000000000000000        0.0000000000000000     
   913.86984235606110       -0.0000000000000000        0.0000000000000000     
   912.58226208145857       -0.0000000000000000        0.0000000000000000     
   911.34133332343140       -0.0000000000000000        0.0000000000000000     
   910.15138386129547       -0.0000000000000000        0.0000000000000000     
   909.01651138614238       -0.0000000000000000        0.0000000000000000     
   907.94057649910849       -0.0000000000000000        0.0000000000000000     
   906.92719678159324       -0.0000000000000000        0.0000000000000000     
   905.97974183135057       -0.0000000000000000        0.0000000000000000     
   905.10132915919212       -0.0000000000000000        0.0000000000000000     
   904.29482084343977       -0.0000000000000000        0.0000000000000000     
   903.56282084304758       -0.0000000000000000        0.0000000000000000     
   902.90767287529309       -0.0000000000000000        0.0000000000000000     
   902.33145876997276       -0.0000000000000000        0.0000000000000000     
   901.83599721893381       -0.0000000000000000        0.0000000000000000     
   901.42284284741493       -0.0000000000000000        0.0000000000000000     
   901.09328554191006       -0.0000000000000000        0.0000000000000000     
   900.84834997801477       -0.0000000000000000        0.0000000000000000     
   900.68879530084030       -0.0000000000000000        0.0000000000000000     
   900.61511492002489       -0.0000000000000000        0.0000000000000000     
   900.62753639103630       -0.0000000000000000        0.0000000000000000     
   900.72602136429703       -0.0000000000000000        0.0000000000000000     
   900.91026559358511       -0.0000000000000000        0.0000000000000000     
   901.17969900515891       -0.0000000000000000        0.0000000000000000     
   901.53348583901129       -0.0000000000000000       -0.0000000000000000     
   901.97052488357974       -0.0000000000000000       -0.0000000000000000     
   902.48944983501974       -0.0000000000000000       -0.0000000000000000     
   903.08862982176754       -0.0000000000000000       -0.0000000000000000     
   903.76617014447118       -0.0000000000000000       -0.0000000000000000     
   904.51991329040015       -0.0000000000000000       -0.0000000000000000     
   905.34744029004855       -0.0000000000000000       -0.0000000000000000     
   906.24607249173323       -0.0000000000000000       -0.0000000000000000     
   907.21287383742492       -0.0000000000000000       -0.0000000000000000     
   908.24465372971815       -0.0000000000000000       -0.0000000000000000     
   909.33797058558127       -0.0000000000000000       -0.0000000000000000     
   910.48913617719995       -0.0000000000000000       -0.0000000000000000     
   911.69422086361192       -0.0000000000000000       -0.0000000000000000     
   912.94905981880174       -0.0000000000000000       -0.0000000000000000     
   914.24926036224895       -0.0000000000000000       -0.0000000000000000     
   915.59021049641342       -0.0000000000000000       -0.0000000000000000     
   916.96708875213676       -0.0000000000000000       -0.0000000000000000     
   918.37487543720329       -0.0000000000000000       -0.0000000000000000     
   919.80836537523635       -0.0000000000000000       -0.0000000000000000     
   921.26218221149611       -0.0000000000000000       -0.0000000000000000     
   922.73079434895681       -0.0000000000000000       -0.0000000000000000     
   924.20853256214980       -0.0000000000000000       -0.0000000000000000     
   925.68960931769823       -0.0000000000000000       -0.0000000000000000     
   927.16813980927475       -0.0000000000000000       -0.0000000000000000     
   928.63816469100971       -0.0000000000000000       -0.0000000000000000     
   930.09367446737838       -0.0000000000000000       -0.0000000000000000     
   931.52863546959475       -0.0000000000000000       -0.0000000000000000     
   932.93701731890678       -0.0000000000000000       -0.0000000000000000     
   934.31282174641217       -0.0000000000000000       -0.0000000000000000     
   935.65011260764481       -0.0000000000000000       -0.0000000000000000     
   936.94304689887224       -0.0000000000000000       -0.0000000000000000     
   938.18590655149342       -0.0000000000000000       -0.0000000000000000     
   939.37313075191776       -0.0000000000000000       -0.0000000000000000     
   940.49934850764203       -0.0000000000000000       -0.0000000000000000     
   941.55941115672783       -0.0000000000000000       -0.0000000000000000     
   942.54842449833518       -0.0000000000000000       -0.0000000000000000     
   943.46178020715706       -0.0000000000000000       -0.0000000000000000     
   944.29518618517454       -0.0000000000000000       -0.0000000000000000     
   945.04469550074566       -0.0000000000000000       -0.0000000000000000     
   945.70673356806810       -0.0000000000000000       -0.0000000000000000     
   946.27812322981276       -0.0000000000000000       -0.0000000000000000     
   946.75610742233653       -0.0000000000000000       -0.0000000000000000     
   947.13836912624708       -0.0000000000000000       -0.0000000000000000     
   947.42304833492835       -0.0000000000000000       -0.0000000000000000     
   947.60875580945219       -0.0000000000000000       -0.0000000000000000     
   947.69458342940970       -0.0000000000000000       -0.0000000000000000     
   947.68011099473051       -0.0000000000000000       -0.0000000000000000     
   947.56540938251294       -0.0000000000000000       -0.0000000000000000     
   947.35104001412606       -0.0000000000000000       -0.0000000000000000     
   947.03805064013841       -0.0000000000000000       -0.0000000000000000     
   946.62796750276414        0.0000000000000000       -0.0000000000000000     
   946.12278398620901        0.0000000000000000       -0.0000000000000000     
   945.52494591337563        0.0000000000000000       -0.0000000000000000     
   944.83733369175206        0.0000000000000000       -0.0000000000000000     
   944.06324155096218        0.0000000000000000       -0.0000000000000000     
   943.20635414861863        0.0000000000000000       -0.0000000000000000     
   942.27072084911822        0.0000000000000000       -0.0000000000000000     
   941.26072800147313        0.0000000000000000       -0.0000000000000000     
   940.18106955688847        0.0000000000000000       -0.0000000000000000     
   939.03671637460513        0.0000000000000000       -0.0000000000000000     
   937.83288456565424        0.0000000000000000       -0.0000000000000000     
   936.57500321897771        0.0000000000000000       -0.0000000000000000     
   935.26868184332716        0.0000000000000000       -0.0000000000000000     
   933.91967784209203        0.0000000000000000       -0.0000000000000000     
   932.53386431745423        0.0000000000000000       -0.0000000000000000     
   931.11719847574147        0.0000000000000000       -0.0000000000000000     
   929.67569087844151        0.0000000000000000       -0.0000000000000000     
   928.21537575379250        0.0000000000000000       -0.0000000000000000     
   926.74228255303024        0.0000000000000000       -0.0000000000000000     
   925.26240890396605        0.0000000000000000       -0.0000000000000000     
   923.78169508331644        0.0000000000000000       -0.0000000000000000     
   922.30600009869420        0.0000000000000000       -0.0000000000000000     
   920.84107944198138        0.0000000000000000       -0.0000000000000000     
   919.39256454832980        0.0000000000000000       -0.0000000000000000     
   917.96594396967873        0.0000000000000000       -0.0000000000000000     
   916.56654624868156        0.0000000000000000       -0.0000000000000000     
   915.19952445849094        0.0000000000000000       -0.0000000000000000     
   913.86984235605223        0.0000000000000000       -0.0000000000000000     
   912.58226208145015        0.0000000000000000       -0.0000000000000000     
   911.34133332342367        0.0000000000000000       -0.0000000000000000     
   910.15138386128797        0.0000000000000000       -0.0000000000000000     
   909.01651138613511        0.0000000000000000       -0.0000000000000000     
   907.94057649910144        0.0000000000000000       -0.0000000000000000     
   906.92719678158664        0.0000000000000000       -0.0000000000000000     
   905.97974183134443        0.0000000000000000       -0.0000000000000000     
   905.10132915918632        0.0000000000000000       -0.0000000000000000     
   904.29482084343454        0.0000000000000000       -0.0000000000000000     
   903.56282084304326        0.0000000000000000       -0.0000000000000000     
   902.90767287528922        0.0000000000000000       -0.0000000000000000     
   902.33145876996912        0.0000000000000000       -0.0000000000000000     
   901.83599721893074        0.0000000000000000       -0.0000000000000000     
   901.42284284741243        0.0000000000000000       -0.0000000000000000     
   901.09328554190813        0.0000000000000000       -0.0000000000000000     
   900.84834997801352        0.0000000000000000       -0.0000000000000000     
   900.68879530083950        0.0000000000000000       -0.0000000000000000     
   900.61511492002444        0.0000000000000000       -0.0000000000000000     
   900.62753639103664        0.0000000000000000       -0.0000000000000000     
   900.72602136429794        0.0000000000000000       -0.0000000000000000     
   900.91026559358659        0.0000000000000000       -0.0000000000000000     
   901.17969900516073        0.0000000000000000       -0.0000000000000000     
   901.53348583901402        0.0000000000000000        0.0000000000000000     
   1013.1529244592757        31.839613346658545        0.0000000000000000     
   1011.2055301957770        31.762733287452622       0.99818410655555745     
   1009.1858970664987        31.652362290053933        1.9913978412708460     
   1007.0954435239820        31.508788850379982        2.9784574731125608     
   1004.9358709201139        31.332353405788538        3.9581967310073303     
   1002.7091531779811        31.123446930926367        4.9294697231255089     
   1000.4175234041335        30.882509261417646        5.8911537117251882     
   998.06345766012703        30.610027166878833        6.8421517139990771     
   995.64965614129710        30.306532198377379        7.7813949026232319     
   993.17902203568553        29.972598338544937        8.7078447833863262     
   990.65463835664355        29.608839485062401        9.6204951312960336     
   988.07974305864730        29.215906800119235        10.518373670824637     
   985.45770275723078        28.794485959694477        11.400543490376606     
   982.79198538071194        28.345294337107283        12.266104185544361     
   980.08613208371901        27.869078155252318        13.114192730175354     
   977.34372875071131        27.366609641294438        13.943984078620186     
   974.56837741202287        26.838684216382649        14.754691506690191     
   971.76366788591531        26.286117751203367        15.545566702755290     
   968.93314994812692        25.709743915979526        16.315899624000206     
   966.08030631594306        25.110411650895948        17.065018136079303     
   963.20852671740113        24.488982779955229        17.792287457229971     
   960.32108329832079        23.846329788007427        18.497109430291083     
   957.42110760091452        23.183333777216657        19.178921648009226     
   954.51156932811728        22.500882615590093        19.837196458487796     
   951.59525708789602        21.799869286463611        20.471439878642339     
   948.67476129186070        21.081190444068017        21.081190444070199     
   945.75245936273768        20.345745176546185        21.666018023833857     
   942.83050338578039        19.594433974102202        22.225522628307214     
   939.91081032003797        18.828157896385818        22.759333237458137     
   936.99505486652288        18.047817929788508        23.267106675757475     
   934.08466507162927        17.254314522091526        23.748526558333094     
   931.18082072549635        16.448547278895241        24.203302331049834     
   928.28445459615136        15.631414803507305        24.631168424912531     
   925.39625652101392        14.803814659506124        25.031883542585181     
   922.51668035738464        13.966643433056923        25.405230091917225     
   919.64595377269779        13.120796870271052        25.751013778197670     
   916.78409083328040        12.267170063494572        26.069063363446713     
   913.93090732702331        11.406657659420190        26.359230597439069     
   911.08603873053448        10.540154061364632        26.621390321370257     
   908.24896070503871        9.6685535979700141        26.855440741172604     
   905.41901197747666        8.7927506309959131        27.061303863511068     
   902.59541943420584        7.9136395757897331        27.238926083499901     
   899.77732522458700        7.0321148094708228        27.388278909242810     
   896.96381564108287        6.1490704438463188        27.509359804485666     
   894.15395151174289        5.2653999425911326        27.602193127059170     
   891.34679981083775        4.3819955652579488        27.666831137463383     
   888.54146616469109        3.4997476242085894        27.703355048994048     
   885.73712790330023        2.6195435445350919        27.711876088319112     
   882.93306728511641        1.7422667214100764        27.692536533470534     
   880.12870450328546       0.86879517399942474        27.645510694899777     
   877.32363006775665       -2.8511605433336384E-012   27.571005804629721     
   874.51763614980700      -0.86325636010034379        27.469262778677564     
   871.71074647455123       -1.7201220347914601        27.340556818866794     
   868.90324435355194       -2.5697577902881186        27.185197821912258     
   866.09569846419834       -3.4113392322880158        27.003530566250806     
   863.28898600532648       -4.2440591125913425        26.795934650474265     
   860.48431288955192       -5.0671297085182436        26.562824161348413     
   857.68323067173878       -5.8797852398780028        26.304647054193588     
   854.88764995922486       -6.6812842857718007        26.021884233751909     
   852.09985010209152       -7.4709121618678385        25.715048329450028     
   849.32248501963647       -8.2479832180351398        25.384682165033780     
   846.55858508095037       -9.0118430163991992        25.031356928746298     
   843.81155502152296       -9.7618703509972757        24.655670056373641     
   841.08516794237016       -10.497479072240440        24.258242845423002     
   838.38355550157792       -11.218119682281765        23.839717824264469     
   835.71119446860621       -11.923280671062258        23.400755905105513     
   833.07288986754622       -12.612489567151442        22.942033354043954     
   830.47375498527970       -13.285313682389315        22.464238615050348     
   827.91918856284451       -13.941360534625584        21.968069027480844     
   825.41484952226347       -14.580277938387246        21.454227478565951     
   822.96662960589538       -15.201753758928126        20.923419033237010     
   820.58062432064980       -15.805515330670444        20.376347583653942     
   818.26310258505964       -16.391328546392664        19.813712559924110     
   816.02047547349582       -16.958996628519355        19.236205741822427     
   813.85926443923836       -17.508358598414990        18.644508208926805     
   811.78606937748657       -18.039287463584994        18.039287463579388     
   809.80753686167054       -18.551688146077307        17.421194757594531     
   807.93032885276648       -19.045495178115921        16.790862649785069     
   806.16109214294625       -19.520670193067282        16.148902817300364     
   804.50642875311860       -19.977199241248389        15.495904139587019     
   802.97286746003067       -20.415089960859742        14.832431069614739     
   801.56683658379529       -20.834368634511733        14.159022302960160     
   800.29463812222411       -21.235077161471995        13.476189751504089     
   799.16242327517136       -21.617269974963651        12.784417824945780     
   798.17616936115053       -21.981010932670181        12.084163020130600     
   797.34165809056356       -22.326370207134072        11.375853815364071     
   796.66445512561074       -22.653421201059079        10.659890864469824     
   796.14989082678392       -22.962237510719053        9.9366474833465741     
   795.80304206014716       -23.252889958819498        9.2064704201830274     
   795.62871491864053       -23.525443716321256        8.4696808992781154     
   795.63142819445329       -23.779955530982065        7.7265759275538120     
   795.81539742825476       -24.016471078756819        6.9774298522992906     
   796.18451935460587       -24.235022452764174        6.2224961583969467     
   796.74235656125461       -24.435625803313606        5.4620094932005747     
   797.49212218306184       -24.618279141515917        4.6961879073037363     
   798.43666445897691       -24.782960318289572        3.9252352995924902     
   799.57845099263920       -24.929625190129698        3.1493440551584944     
   800.91955257377879       -25.058205982825054        2.3686978647950880     
   802.46162643851301       -25.168609864377029        1.5834747148490846     
   804.20589887186884       -25.260717738675705       0.79385003609644422     
   806.15314708533037       -25.334383271990049       -5.2397358650340227E-012
   808.30368033592254       -25.389432164997597      -0.79789504991213955     
   810.65732029120375       -25.425661683865524       -1.5996470445496553     
   813.21338068654029       -25.442840464748070       -2.4050565281785778     
   815.97064636703487       -25.440708606920982       -3.2139089055464392     
   818.92735185630784       -25.418978070562126       -4.0259706153333106     
   822.08115964771400       -25.377333395829226       -4.8409852503621433     
   825.42913847011437       -25.315432760294943       -5.6586696479338849     
   828.96774183941466       -25.232909391881250       -6.4787099769540735     
   832.69278726798802       -25.129373354090632       -7.3007578522128762     
   836.59943656578275       -25.004413719456664       -8.1244265102140680     
   840.68217772809862       -24.857601145625090       -8.9492870852499422     
   844.93480896413746       -24.688490866225035       -9.7748650288918260     
   849.35042547560943       -24.496626105599688       -10.600636720586857     
   853.92140964368832       -24.281541922448135       -11.426026321468953     
   858.63942532301701       -24.042769482415643       -12.250402927625970     
   863.49541697045413       -23.779840753609033       -13.073078082707225     
   868.47961435091008       -23.492293611891885       -13.893303712672862     
   873.58154355988313       -23.179677334654265       -14.710270547426235     
   878.79004507909065       -22.841558452621683       -15.523107094764413     
   884.09329953503959       -22.477526919294235       -16.330879231261118     
   889.47886175796111       -22.087202546972851       -17.132590472098531     
   894.93370363823703       -21.670241647284286       -17.927182977251878     
   900.44426614812699       -21.226343802975681       -18.713539344606126     
   905.99652073803975       -20.755258686889331       -19.490485231410595     
   911.57604012987576       -20.256792833883729       -20.256792833894213     
   917.16807831756739       -19.730816262514793       -21.011185240910688     
   922.75765935088498       -19.177268836035473       -21.752341661308140     
   928.32967422854517       -18.596166247220417       -22.478903506597533     
   933.86898496789388       -17.987605509159682       -23.189481290835737     
   939.36053465961788       -17.351769834921328       -23.882662288976306     
   944.78946206695377       -16.688932793200994       -24.557018873932144     
   950.14121910035794       -15.999461634983787       -25.211117431991450     
   955.40168930150287       -15.283819697915940       -25.843527736860072     
   960.55730531539268       -14.542567810433246       -26.452832645322442     
   965.59516322602519       -13.776364636440452       -27.037637963166361     
   970.50313158735025       -12.985965923023263       -27.596582319377802     
   975.26995300311341       -12.172222637656580       -28.128346880347170     
   979.88533619950897       -11.336078006859013       -28.631664734434182     
   984.34003669329900       -10.478563494312910       -29.105329781013065     
   988.62592438168610       -9.6007937821353195       -29.548204967121499     
   992.73603666208123       -8.7039608432322257       -29.959229728882807     
   996.66461602016841       -7.7893272145260566       -30.337426513523020     
   1000.4071313911143       -6.8582185994290041       -30.681906280403471     
   1003.9602829872285       -5.9120159425136620       -30.991872905174560     
   1007.3219906807221       -4.9521471293560797       -31.266626438926334     
   1010.4913664170715       -3.9800784696751017       -31.505565202971987     
   1013.4686714982970       -2.9973061220664441       -31.708186728535690     
   1016.2552599031045       -2.0053476139766508       -31.874087578046105     
   1018.8535090914590       -1.0057336014336400       -32.002962109979833     
   1021.2667399666161        9.9711102900677743E-012  -32.094600271418905     
   1023.4991278327294        1.0103193979649148       -32.148884521030098     
   1025.5556062888779        2.0236997231268230       -32.165785999595528     
   1027.4417660415118        3.0386311704045315       -32.145360075290263     
   1029.1637506005068        4.0536244263809467       -32.087741396589067     
   1030.7281507549119        5.0672153493621916       -31.993138587153812     
   1032.1418996105226        6.0779688886669012       -31.861828714630430     
   1033.4121698211163        7.0844822488498407       -31.694151659420207     
   1034.5462744675726        8.0853873217600114       -31.490504500722530     
   1035.5515728432538        9.0793524243369017       -31.251336026065687     
   1036.4353821985310        10.065083392628090       -30.977141457752616     
   1037.2048962900483        11.041324092553040       -30.668457475739764     
   1037.8671113779315        12.006856415449640       -30.325857601986826     
   1038.4287601222827        12.960499831508599       -29.949947996754585     
   1038.8962536531485        13.901110576993378       -29.541363703104647     
   1039.2756319287348        14.827580551875005       -29.100765362309158     
   1039.5725223568031        15.738836003428331       -28.628836410276971     
   1039.7921065346243        16.633836068708213       -28.126280753629370     
   1039.9390948634818        17.511571244912894       -27.593820913838865     
   1040.0177087136356        18.371061851710838       -27.032196618937011     
   1040.0316697534149        19.211356543890552       -26.442163814716981     
   1039.9841960099461        20.031530926413225       -25.824494061075374     
   1039.8780041968348        20.830686317289761       -25.179974274103742     
   1039.7153178238116        21.607948696834864       -24.509406770674950     
   1039.4978805927390        22.362467874902240       -23.813609569491522     
   1039.2269745814417        23.093416900792842       -23.093416900776116     
   1038.9034427196914        23.799991733736849       -22.349679875902194     