 VARIABLES = "x_1", "x_2", "x_3"
 ZONE F = POINT , I =         201  , J =         101
   6373.4848970627672        0.0000000000000000        0.0000000000000000     
   6373.4848970627672        0.0000000000000000        0.0000000000000000     
   6373.4848970627672        0.0000000000000000        0.0000000000000000     
   6373.4848970627672        0.0000000000000000        0.0000000000000000     
   6373.4848970627672        0.0000000000000000        0.0000000000000000     
   6373.4848970627672        0.0000000000000000        0.0000000000000000     
   6373.4848970627672        0.0000000000000000        0.0000000000000000     
   6373.4848970627672        0.0000000000000000        0.0000000000000000     
   6373.4848970627672        0.0000000000000000        0.0000000000000000     
   6373.4848970627672        0.0000000000000000        0.0000000000000000     
   6373.4848970627672        0.0000000000000000        0.0000000000000000     
   6373.4848970627672        0.0000000000000000        0.0000000000000000     
   6373.4848970627672        0.0000000000000000        0.0000000000000000     
   6373.4848970627672        0.0000000000000000        0.0000000000000000     
   6373.4848970627672        0.0000000000000000        0.0000000000000000     
   6373.4848970627672        0.0000000000000000        0.0000000000000000     
   6373.4848970627672        0.0000000000000000        0.0000000000000000     
   6373.4848970627672        0.0000000000000000        0.0000000000000000     
   6373.4848970627672        0.0000000000000000        0.0000000000000000     
   6373.4848970627672        0.0000000000000000        0.0000000000000000     
   6373.4848970627672        0.0000000000000000        0.0000000000000000     
   6373.4848970627672        0.0000000000000000        0.0000000000000000     
   6373.4848970627672        0.0000000000000000        0.0000000000000000     
   6373.4848970627672        0.0000000000000000        0.0000000000000000     
   6373.4848970627672        0.0000000000000000        0.0000000000000000     
   6373.4848970627672        0.0000000000000000        0.0000000000000000     
   6373.4848970627672        0.0000000000000000        0.0000000000000000     
   6373.4848970627672        0.0000000000000000        0.0000000000000000     
   6373.4848970627672        0.0000000000000000        0.0000000000000000     
   6373.4848970627672        0.0000000000000000        0.0000000000000000     
   6373.4848970627672        0.0000000000000000        0.0000000000000000     
   6373.4848970627672        0.0000000000000000        0.0000000000000000     
   6373.4848970627672        0.0000000000000000        0.0000000000000000     
   6373.4848970627672        0.0000000000000000        0.0000000000000000     
   6373.4848970627672        0.0000000000000000        0.0000000000000000     
   6373.4848970627672        0.0000000000000000        0.0000000000000000     
   6373.4848970627672        0.0000000000000000        0.0000000000000000     
   6373.4848970627672        0.0000000000000000        0.0000000000000000     
   6373.4848970627672        0.0000000000000000        0.0000000000000000     
   6373.4848970627672        0.0000000000000000        0.0000000000000000     
   6373.4848970627672        0.0000000000000000        0.0000000000000000     
   6373.4848970627672        0.0000000000000000        0.0000000000000000     
   6373.4848970627672        0.0000000000000000        0.0000000000000000     
   6373.4848970627672        0.0000000000000000        0.0000000000000000     
   6373.4848970627672        0.0000000000000000        0.0000000000000000     
   6373.4848970627672        0.0000000000000000        0.0000000000000000     
   6373.4848970627672        0.0000000000000000        0.0000000000000000     
   6373.4848970627672        0.0000000000000000        0.0000000000000000     
   6373.4848970627672        0.0000000000000000        0.0000000000000000     
   6373.4848970627672        0.0000000000000000        0.0000000000000000     
   6373.4848970627672       -0.0000000000000000        0.0000000000000000     
   6373.4848970627672       -0.0000000000000000        0.0000000000000000     
   6373.4848970627672       -0.0000000000000000        0.0000000000000000     
   6373.4848970627672       -0.0000000000000000        0.0000000000000000     
   6373.4848970627672       -0.0000000000000000        0.0000000000000000     
   6373.4848970627672       -0.0000000000000000        0.0000000000000000     
   6373.4848970627672       -0.0000000000000000        0.0000000000000000     
   6373.4848970627672       -0.0000000000000000        0.0000000000000000     
   6373.4848970627672       -0.0000000000000000        0.0000000000000000     
   6373.4848970627672       -0.0000000000000000        0.0000000000000000     
   6373.4848970627672       -0.0000000000000000        0.0000000000000000     
   6373.4848970627672       -0.0000000000000000        0.0000000000000000     
   6373.4848970627672       -0.0000000000000000        0.0000000000000000     
   6373.4848970627672       -0.0000000000000000        0.0000000000000000     
   6373.4848970627672       -0.0000000000000000        0.0000000000000000     
   6373.4848970627672       -0.0000000000000000        0.0000000000000000     
   6373.4848970627672       -0.0000000000000000        0.0000000000000000     
   6373.4848970627672       -0.0000000000000000        0.0000000000000000     
   6373.4848970627672       -0.0000000000000000        0.0000000000000000     
   6373.4848970627672       -0.0000000000000000        0.0000000000000000     
   6373.4848970627672       -0.0000000000000000        0.0000000000000000     
   6373.4848970627672       -0.0000000000000000        0.0000000000000000     
   6373.4848970627672       -0.0000000000000000        0.0000000000000000     
   6373.4848970627672       -0.0000000000000000        0.0000000000000000     
   6373.4848970627672       -0.0000000000000000        0.0000000000000000     
   6373.4848970627672       -0.0000000000000000        0.0000000000000000     
   6373.4848970627672       -0.0000000000000000        0.0000000000000000     
   6373.4848970627672       -0.0000000000000000        0.0000000000000000     
   6373.4848970627672       -0.0000000000000000        0.0000000000000000     
   6373.4848970627672       -0.0000000000000000        0.0000000000000000     
   6373.4848970627672       -0.0000000000000000        0.0000000000000000     
   6373.4848970627672       -0.0000000000000000        0.0000000000000000     
   6373.4848970627672       -0.0000000000000000        0.0000000000000000     
   6373.4848970627672       -0.0000000000000000        0.0000000000000000     
   6373.4848970627672       -0.0000000000000000        0.0000000000000000     
   6373.4848970627672       -0.0000000000000000        0.0000000000000000     
   6373.4848970627672       -0.0000000000000000        0.0000000000000000     
   6373.4848970627672       -0.0000000000000000        0.0000000000000000     
   6373.4848970627672       -0.0000000000000000        0.0000000000000000     
   6373.4848970627672       -0.0000000000000000        0.0000000000000000     
   6373.4848970627672       -0.0000000000000000        0.0000000000000000     
   6373.4848970627672       -0.0000000000000000        0.0000000000000000     
   6373.4848970627672       -0.0000000000000000        0.0000000000000000     
   6373.4848970627672       -0.0000000000000000        0.0000000000000000     
   6373.4848970627672       -0.0000000000000000        0.0000000000000000     
   6373.4848970627672       -0.0000000000000000        0.0000000000000000     
   6373.4848970627672       -0.0000000000000000        0.0000000000000000     
   6373.4848970627672       -0.0000000000000000        0.0000000000000000     
   6373.4848970627672       -0.0000000000000000        0.0000000000000000     
   6373.4848970627672       -0.0000000000000000        0.0000000000000000     
   6373.4848970627672       -0.0000000000000000       -0.0000000000000000     
   6373.4848970627672       -0.0000000000000000       -0.0000000000000000     
   6373.4848970627672       -0.0000000000000000       -0.0000000000000000     
   6373.4848970627672       -0.0000000000000000       -0.0000000000000000     
   6373.4848970627672       -0.0000000000000000       -0.0000000000000000     
   6373.4848970627672       -0.0000000000000000       -0.0000000000000000     
   6373.4848970627672       -0.0000000000000000       -0.0000000000000000     
   6373.4848970627672       -0.0000000000000000       -0.0000000000000000     
   6373.4848970627672       -0.0000000000000000       -0.0000000000000000     
   6373.4848970627672       -0.0000000000000000       -0.0000000000000000     
   6373.4848970627672       -0.0000000000000000       -0.0000000000000000     
   6373.4848970627672       -0.0000000000000000       -0.0000000000000000     
   6373.4848970627672       -0.0000000000000000       -0.0000000000000000     
   6373.4848970627672       -0.0000000000000000       -0.0000000000000000     
   6373.4848970627672       -0.0000000000000000       -0.0000000000000000     
   6373.4848970627672       -0.0000000000000000       -0.0000000000000000     
   6373.4848970627672       -0.0000000000000000       -0.0000000000000000     
   6373.4848970627672       -0.0000000000000000       -0.0000000000000000     
   6373.4848970627672       -0.0000000000000000       -0.0000000000000000     
   6373.4848970627672       -0.0000000000000000       -0.0000000000000000     
   6373.4848970627672       -0.0000000000000000       -0.0000000000000000     
   6373.4848970627672       -0.0000000000000000       -0.0000000000000000     
   6373.4848970627672       -0.0000000000000000       -0.0000000000000000     
   6373.4848970627672       -0.0000000000000000       -0.0000000000000000     
   6373.4848970627672       -0.0000000000000000       -0.0000000000000000     
   6373.4848970627672       -0.0000000000000000       -0.0000000000000000     
   6373.4848970627672       -0.0000000000000000       -0.0000000000000000     
   6373.4848970627672       -0.0000000000000000       -0.0000000000000000     
   6373.4848970627672       -0.0000000000000000       -0.0000000000000000     
   6373.4848970627672       -0.0000000000000000       -0.0000000000000000     
   6373.4848970627672       -0.0000000000000000       -0.0000000000000000     
   6373.4848970627672       -0.0000000000000000       -0.0000000000000000     
   6373.4848970627672       -0.0000000000000000       -0.0000000000000000     
   6373.4848970627672       -0.0000000000000000       -0.0000000000000000     
   6373.4848970627672       -0.0000000000000000       -0.0000000000000000     
   6373.4848970627672       -0.0000000000000000       -0.0000000000000000     
   6373.4848970627672       -0.0000000000000000       -0.0000000000000000     
   6373.4848970627672       -0.0000000000000000       -0.0000000000000000     
   6373.4848970627672       -0.0000000000000000       -0.0000000000000000     
   6373.4848970627672       -0.0000000000000000       -0.0000000000000000     
   6373.4848970627672       -0.0000000000000000       -0.0000000000000000     
   6373.4848970627672       -0.0000000000000000       -0.0000000000000000     
   6373.4848970627672       -0.0000000000000000       -0.0000000000000000     
   6373.4848970627672       -0.0000000000000000       -0.0000000000000000     
   6373.4848970627672       -0.0000000000000000       -0.0000000000000000     
   6373.4848970627672       -0.0000000000000000       -0.0000000000000000     
   6373.4848970627672       -0.0000000000000000       -0.0000000000000000     
   6373.4848970627672       -0.0000000000000000       -0.0000000000000000     
   6373.4848970627672       -0.0000000000000000       -0.0000000000000000     
   6373.4848970627672       -0.0000000000000000       -0.0000000000000000     
   6373.4848970627672        0.0000000000000000       -0.0000000000000000     
   6373.4848970627672        0.0000000000000000       -0.0000000000000000     
   6373.4848970627672        0.0000000000000000       -0.0000000000000000     
   6373.4848970627672        0.0000000000000000       -0.0000000000000000     
   6373.4848970627672        0.0000000000000000       -0.0000000000000000     
   6373.4848970627672        0.0000000000000000       -0.0000000000000000     
   6373.4848970627672        0.0000000000000000       -0.0000000000000000     
   6373.4848970627672        0.0000000000000000       -0.0000000000000000     
   6373.4848970627672        0.0000000000000000       -0.0000000000000000     
   6373.4848970627672        0.0000000000000000       -0.0000000000000000     
   6373.4848970627672        0.0000000000000000       -0.0000000000000000     
   6373.4848970627672        0.0000000000000000       -0.0000000000000000     
   6373.4848970627672        0.0000000000000000       -0.0000000000000000     
   6373.4848970627672        0.0000000000000000       -0.0000000000000000     
   6373.4848970627672        0.0000000000000000       -0.0000000000000000     
   6373.4848970627672        0.0000000000000000       -0.0000000000000000     
   6373.4848970627672        0.0000000000000000       -0.0000000000000000     
   6373.4848970627672        0.0000000000000000       -0.0000000000000000     
   6373.4848970627672        0.0000000000000000       -0.0000000000000000     
   6373.4848970627672        0.0000000000000000       -0.0000000000000000     
   6373.4848970627672        0.0000000000000000       -0.0000000000000000     
   6373.4848970627672        0.0000000000000000       -0.0000000000000000     
   6373.4848970627672        0.0000000000000000       -0.0000000000000000     
   6373.4848970627672        0.0000000000000000       -0.0000000000000000     
   6373.4848970627672        0.0000000000000000       -0.0000000000000000     
   6373.4848970627672        0.0000000000000000       -0.0000000000000000     
   6373.4848970627672        0.0000000000000000       -0.0000000000000000     
   6373.4848970627672        0.0000000000000000       -0.0000000000000000     
   6373.4848970627672        0.0000000000000000       -0.0000000000000000     
   6373.4848970627672        0.0000000000000000       -0.0000000000000000     
   6373.4848970627672        0.0000000000000000       -0.0000000000000000     
   6373.4848970627672        0.0000000000000000       -0.0000000000000000     
   6373.4848970627672        0.0000000000000000       -0.0000000000000000     
   6373.4848970627672        0.0000000000000000       -0.0000000000000000     
   6373.4848970627672        0.0000000000000000       -0.0000000000000000     
   6373.4848970627672        0.0000000000000000       -0.0000000000000000     
   6373.4848970627672        0.0000000000000000       -0.0000000000000000     
   6373.4848970627672        0.0000000000000000       -0.0000000000000000     
   6373.4848970627672        0.0000000000000000       -0.0000000000000000     
   6373.4848970627672        0.0000000000000000       -0.0000000000000000     
   6373.4848970627672        0.0000000000000000       -0.0000000000000000     
   6373.4848970627672        0.0000000000000000       -0.0000000000000000     
   6373.4848970627672        0.0000000000000000       -0.0000000000000000     
   6373.4848970627672        0.0000000000000000       -0.0000000000000000     
   6373.4848970627672        0.0000000000000000       -0.0000000000000000     
   6373.4848970627672        0.0000000000000000       -0.0000000000000000     
   6373.4848970627672        0.0000000000000000       -0.0000000000000000     
   6373.4848970627672        0.0000000000000000       -0.0000000000000000     
   6373.4848970627672        0.0000000000000000       -0.0000000000000000     
   6373.4848970627672        0.0000000000000000       -0.0000000000000000     
   6373.4848970627672        0.0000000000000000        0.0000000000000000     
   7316.2791552121125        229.92333517913539        0.0000000000000000     
   7194.4930824318508        225.98448890154231        7.1018486698910719     
   7075.4452523528671        221.91605842085789        13.961774973790694     
   6959.1612466781125        217.72985242595448        20.581530732811981     
   6845.6579167950576        213.43707529095411        26.963373058863223     
   6734.9442243255453        209.04833518692183        33.110003569358902     
   6627.0220338238878        204.57365504633404        39.024511805232628     
   6521.8868571979719        200.02248589099452        44.710322771561678     
   6419.5285500636483        195.40372208323930        50.171148484402771     
   6319.9319607636544        190.72571810733999        55.410943379666890     
   6223.0775332021694        185.99630653255642        60.433863419005014     
   6128.9418649761483        181.22281685099162        65.244228712776646     
   6037.4982225369158        176.41209492209632        69.846489470345261     
   5948.7170153004226        171.57052279128004        74.245195082385038     
   5862.5662307519078        166.70403868260388        78.444966137864768     
   5779.0118326697120        161.81815699503304        82.450469179260580     
   5698.0181246311813        156.91798815830791        86.266394002766546     
   5619.5480809684686        152.00825822830402        89.897433315331298     
   5543.5636473197965        147.09332812295213        93.348264566826444     
   5470.0260128775872        142.17721241855580        96.623533783178118     
   5398.8958563740443        137.26359764286653        99.727841234567634     
   5330.1335677706693        132.35586001573134        102.66572878156271     
   5263.6994475350648        127.45708260071345        105.44166875107656     
   5199.5538852983673        122.57007184196486        108.06005420317840     
   5137.6575195926716        117.69737346998144        110.52519045886901     
   5077.9713802717761        112.84128776785523        112.84128776786692     
   5020.4570151219305        108.00388419640090        115.01245500414343     
   4965.0766020735737        103.18701538221534        117.04269428532916     
   4911.7930483311638        98.392330477463162        118.93589642014572     
   4860.5700776470367        93.621287904073327        120.69583709565951     
   4811.3723068772688        88.875167498200383        122.32617372338625     
   4764.1653128734297        84.155082073336885        123.83044287009446     
   4718.9156906837998        79.461988422447789        125.21205820554415     
   4675.5911039617722        74.796697781015865        126.47430890537717     
   4634.1603284073599        70.159885773999775        127.62035845293782     
   4594.5932890004351        65.552101870482900        128.65324378897657     
   4556.8610917210608        60.973778370276406        129.57587476297527     
   4520.9360503933967        56.425238946992231        130.39103384426198     
   4486.7917092346279        51.906706772151061        131.10137605516564     
   4454.4028616392807        47.418312244782143        131.70942909222060     
   4423.7455656818966        42.960100350734038        132.21759360488824     
   4394.7971567770564        38.532037675573754        132.62814360443576     
   4367.5362578952136        34.134019094535027        132.94322697852763     
   4341.9427876951231        29.765874162499387        133.16486608975072     
   4317.9979668991618        25.427373226478309        133.29495843874739     
   4295.6843232056690        21.118233282522702        133.33527737486904     
   4274.9856950030626        16.838123598431569        133.28747283932515     
   4255.8872341231890        12.586671123075957        133.15307212768982     
   4238.3754078462180        8.3634657026032126        132.93348066036691     
   4222.4380003461129        4.1680651232512895        132.62998275121470     
   4208.0641137442335       -1.3675530846010823E-011   132.24374236601366     
   4195.2441689185243       -4.1412214703151093        131.77580386383056     
   4183.9699061972296       -8.2561088728809437        131.22709271561527     
   4174.2343860485607       -12.345185038430088        130.59841619556121     
   4166.0319898614744       -16.408981588503785        129.89046404189398     
   4159.3584208972306       -20.448034545680528        129.10380908482293     
   4154.2107054767584       -24.462879991942042        128.23890784041990     
   4150.5871944547744       -28.454049758753175        127.29610107018028     
   4148.4875650180611       -32.422067132677505        126.27561430698906     
   4147.9128228320860       -36.367442560576649        125.17755834916885     
   4148.8653045471774       -40.290669338634309        124.00192972523412     
   4151.3486806624796       -44.192219269607698        122.74861113292711     
   4155.3679587331162       -48.072538272844838        121.41737185708163     
   4160.9294868926536       -51.932041931711510        120.00786817184650     
   4168.0409576497213       -55.771110963159728        118.51964373382728     
   4176.7114119036041       -59.590086594234506        116.95212997376741     
   4186.9512431092307       -63.389265830368188        115.30464649550689     
   4198.7722015067784       -67.168896600353918        113.57640149213435     
   4212.1873983150008       -70.929172762926555        111.76649219049351     
   4227.2113097703650       -74.670228959920692        109.87390533653580     
   4243.8597808757331       -78.392135301022194        107.89751773542419     
   4262.1500287027784       -82.094891865196573        105.83609686181443     
   4282.1006450711457       -85.778423003968740        103.68830155736566     
   4303.7315984045754       -89.442571431856209        101.45268283428219     
   4327.0642345394926       -93.087092089432900        99.127684805569118     
   4352.1212762348569       -96.711645764738577        96.711645764708521     
   4378.9268211029230       -100.31579245905648        94.202799439639378     
   4407.5063376492417       -103.89898448348931        91.599276448269222     
   4437.8866590758571       -107.46055927327232        88.899105985261343     
   4470.0959744647134       -110.99973190740992        86.100217772548788     
   4504.1638169179887       -114.51558732201772        83.200444308928468     
   4540.1210481885746       -118.00707220673311        80.197523457197960     
   4577.9998392867437       -121.47298657474381        77.089101410624764     
   4617.8336464981785       -124.91197499841630        73.872736084086398     
   4659.6571821936068       -128.32251750421412        70.545900979000848     
   4703.5063797512412       -131.70292012262536        67.105989575180388     
   4749.4183518497275       -135.05130509121031        63.550320306992532     
   4797.4313413214513       -138.36560071168535        59.876142185694647     
   4847.5846636834731       -141.64353086523306        56.080641134520427     
   4899.9186403862341       -144.88260419402695        52.160947108023706     
   4954.4745217384343       -148.08010296135376        48.114142072310045     
   5011.2943983801497       -151.23307160776966        43.937268928087256     
   5070.4211000857867       -154.33830502652486        39.627341463903221     
   5131.8980805838373       -157.39233658810630        35.181355432471861     
   5195.7692869825350       -160.39142595127683        30.596300848557497     
   5262.0790122897224       -163.33154670652141        25.869175612420332     
   5330.8717294125518       -166.20837390743642        20.997000568231243     
   5402.1919049194630       -169.01727155643647        15.976836112035473     
   5476.0837907441664       -171.75328012328248        10.805800468644255     
   5552.5911919115242       -174.41110418848271        5.4810897611061415     
   5631.7572082699953       -176.98510031866508       -3.6604608360119315E-011
   5713.6239481278344       -179.46926529767822       -5.6400488778871258     
   5798.2322116133591       -181.85722485552236       -11.441486789495858     
   5885.6211415175258       -184.14222305732076       -17.406564974179680     
   5975.8278393340470       -186.31711253647086       -23.537325020646648     
   6068.8869441937541       -188.37434577988029       -29.835565327889011     
   6164.8301724017765       -190.30596769879676       -36.302804881665800     
   6263.6858153355915       -192.10360974612300       -42.940244238442055     
   6365.4781935564315       -193.75848587015363       -49.748723622428443     
   6470.2270651353992       -195.26139062521003       -56.728678059492943     
   6577.9469864081375       -196.60269979140631       -63.880089494842494     
   6688.6466236589349       -197.77237388838793       -71.202435870207751     
   6802.3280146084790       -198.75996500086924       -78.694637171552216     
   6918.9857790512933       -199.55462736652055       -86.354998500834512     
   7038.6062785720051       -200.14513220843924       -94.181150275852900     
   7161.1667259778706       -200.51988732413466       -102.16998572146201     
   7286.6342459309353       -200.66696196948149       -110.31759588417482     
   7414.9648892601890       -200.57411759809744       -118.61920248098400     
   7546.1026045935587       -200.22884503246433       -127.06908898264713     
   7679.9781722813386       -199.61840865099342       -135.66053043198366     
   7816.5081070939277       -198.72989817306262       -144.38572260898033     
   7955.5935378708054       -197.55028860950679       -153.23571127641145     
   8097.1190741728324       -196.06650891660874       -162.20032237155607     
   8240.9516720379052       -194.26551984463174       -171.26809415021532     
   8386.9395131451984       -192.13440140456549       -180.42621243680799     
   8534.9109140296296       -189.66045028620886       -189.66045028630703     
   8684.6732844194048       -186.83128744426122       -198.95511351687350     
   8836.0121562465138       -183.63497592424980       -208.29299372204864     
   8988.6903073389058       -180.06014882478183       -217.65533051312946     
   9142.4470061661377       -176.09614708530901       -227.02178486978627     
   9296.9974061827415       -171.73316654866542       -236.37042558298171     
   9452.0321201865518       -166.96241347555559       -245.67773085088135     
   9607.2170065579721       -161.77626738573531       -254.91860712694253     
   9762.1932001351179       -156.16844977128875       -264.06642731051517     
   9916.5774206624828       -150.13419687651444       -273.09309030452516     
   10069.962591079277       -143.67043437390299       -281.96910383290520     
   10221.918796240008       -136.77595139623338       -290.66369220370007     
   10371.994609849029       -129.45157102287280       -299.14493041496706     
   10519.718813326164       -121.70031397817289       -307.37990562433470     
   10664.602524918324       -113.52755199754765       -315.33490653686169     
   10806.141750588242       -104.94114707016918       -322.97564071046475     
   10943.820360060070       -95.951572594875273       -330.26747913883594     
   11077.113481956259       -86.572012406678397       -337.17572675822061     
   11205.491301372887       -76.818433663055004       -343.66591675183355     
   11328.423231739042       -66.709629737848232       -349.70412571445263     
   11445.382420701560       -56.267229568528947       -355.25730591555788     
   11555.850537456861       -45.515670347580397       -360.29363009260766     
   11659.322776874180       -34.482131042698377       -364.78284345074297     
   11755.313004428996       -23.196424968297837       -368.69661687777057     
   11843.358955932936       -11.690850499639936       -372.00889484063066     
   11923.027397850517        1.1641015664463283E-010  -374.69623104703976     
   11993.919148150306        11.839471909134325       -376.73810476512006     
   12055.673854600662        23.789118495433868       -378.11721071979991     
   12107.974427544292        35.809006137395585       -378.81971574444668     
   12150.551027699472        47.858050199622383       -378.83547586609706     
   12183.184516513242        59.894376165987815       -378.15820823773811     
   12205.709286939913        71.875699783263727       -376.78561328418402     
   12218.015405964838        83.759719294495056       -374.71944356994874     
   12220.050016302444        95.504512375663637       -371.96551718817130     
   12211.817962879279        107.06893015709953       -368.53367486010433     
   12193.381629260510        118.41298072660524       -364.43768136971289     
   12164.859989304992        129.49819477605607       -359.69507337921328     
   12126.426899219092        140.28796655678070       -354.32695702090660     
   12078.308674017873        150.74786402880795       -348.35775988425723     
   12020.781009452150        160.84590299235600       -341.81494306760527     
   11954.165325083999        170.55278103573255       -334.72867980356551     
   11878.824615894522        179.84206827552453       -327.13150776997350     
   11795.158908248977        188.69035305341930       -319.05796255055157     
   11703.600421064988        197.07734194027651       -310.54419981046232     
   11604.608534638042        204.98591453641072       -301.62761361259237     
   11498.664667942008        212.40213460696438       -292.34645794229431     
   11386.267160649213        219.31522001971527       -282.73947796144301     
   11267.926249015174        225.71747473481653       -272.84555681302288     
   11144.159215638112        231.60418671611197       -262.70338298461587     
   11015.485782461425        236.97349608473718       -252.35114235369375     
   10882.423804776987        241.82623811900723       -241.82623811883207     
   10745.485311925335        246.16576582836106       -231.16504090509380     