 VARIABLES = "x_1", "x_2", "x_3"
 ZONE F = POINT , I =         201  , J =         101
   347.85535217189801        0.0000000000000000        0.0000000000000000     
   347.74290045884845        0.0000000000000000        0.0000000000000000     
   347.62825181405742        0.0000000000000000        0.0000000000000000     
   347.51186468421423        0.0000000000000000        0.0000000000000000     
   347.39420308621067        0.0000000000000000        0.0000000000000000     
   347.27573470523998        0.0000000000000000        0.0000000000000000     
   347.15692900027534        0.0000000000000000        0.0000000000000000     
   347.03825532504339        0.0000000000000000        0.0000000000000000     
   346.92018107217996        0.0000000000000000        0.0000000000000000     
   346.80316984780274        0.0000000000000000        0.0000000000000000     
   346.68767968326165        0.0000000000000000        0.0000000000000000     
   346.57416129033334        0.0000000000000000        0.0000000000000000     
   346.46305636563164        0.0000000000000000        0.0000000000000000     
   346.35479594950789        0.0000000000000000        0.0000000000000000     
   346.24979884421509        0.0000000000000000        0.0000000000000000     
   346.14847009563573        0.0000000000000000        0.0000000000000000     
   346.05119954239933        0.0000000000000000        0.0000000000000000     
   345.95836043577344        0.0000000000000000        0.0000000000000000     
   345.87030813328658        0.0000000000000000        0.0000000000000000     
   345.78737886864820        0.0000000000000000        0.0000000000000000     
   345.70988860016183        0.0000000000000000        0.0000000000000000     
   345.63813193949682        0.0000000000000000        0.0000000000000000     
   345.57238116237329        0.0000000000000000        0.0000000000000000     
   345.51288530245370        0.0000000000000000        0.0000000000000000     
   345.45986932948489        0.0000000000000000        0.0000000000000000     
   345.41353341253625        0.0000000000000000        0.0000000000000000     
   345.37405226899489        0.0000000000000000        0.0000000000000000     
   345.34157459983152        0.0000000000000000        0.0000000000000000     
   345.31622261152836        0.0000000000000000        0.0000000000000000     
   345.29809162495519        0.0000000000000000        0.0000000000000000     
   345.28724977140251        0.0000000000000000        0.0000000000000000     
   345.28373777591531        0.0000000000000000        0.0000000000000000     
   345.28756882801872        0.0000000000000000        0.0000000000000000     
   345.29872853988894        0.0000000000000000        0.0000000000000000     
   345.31717499198373        0.0000000000000000        0.0000000000000000     
   345.34283886611581        0.0000000000000000        0.0000000000000000     
   345.37562366591681        0.0000000000000000        0.0000000000000000     
   345.41540602459492        0.0000000000000000        0.0000000000000000     
   345.46203609984275        0.0000000000000000        0.0000000000000000     
   345.51533805568351        0.0000000000000000        0.0000000000000000     
   345.57511063096263        0.0000000000000000        0.0000000000000000     
   345.64112779409220        0.0000000000000000        0.0000000000000000     
   345.71313948352633        0.0000000000000000        0.0000000000000000     
   345.79087243329963        0.0000000000000000        0.0000000000000000     
   345.87403108277601        0.0000000000000000        0.0000000000000000     
   345.96229856955148        0.0000000000000000        0.0000000000000000     
   346.05533780421104        0.0000000000000000        0.0000000000000000     
   346.15279262536740        0.0000000000000000        0.0000000000000000     
   346.25428903310518        0.0000000000000000        0.0000000000000000     
   346.35943649861917        0.0000000000000000        0.0000000000000000     
   346.46782934746369       -0.0000000000000000        0.0000000000000000     
   346.57904821343760       -0.0000000000000000        0.0000000000000000     
   346.69266155970229       -0.0000000000000000        0.0000000000000000     
   346.80822726328506       -0.0000000000000000        0.0000000000000000     
   346.92529425865126       -0.0000000000000000        0.0000000000000000     
   347.04340423554595       -0.0000000000000000        0.0000000000000000     
   347.16209338581041       -0.0000000000000000        0.0000000000000000     
   347.28089419338215       -0.0000000000000000        0.0000000000000000     
   347.39933726118818       -0.0000000000000000        0.0000000000000000     
   347.51695316815062       -0.0000000000000000        0.0000000000000000     
   347.63327434904983       -0.0000000000000000        0.0000000000000000     
   347.74783698953786       -0.0000000000000000        0.0000000000000000     
   347.86018292817056       -0.0000000000000000        0.0000000000000000     
   347.96986155694435       -0.0000000000000000        0.0000000000000000     
   348.07643171148089       -0.0000000000000000        0.0000000000000000     
   348.17946354171630       -0.0000000000000000        0.0000000000000000     
   348.27854035372485       -0.0000000000000000        0.0000000000000000     
   348.37326041314407       -0.0000000000000000        0.0000000000000000     
   348.46323870057785       -0.0000000000000000        0.0000000000000000     
   348.54810860934452       -0.0000000000000000        0.0000000000000000     
   348.62752357600164       -0.0000000000000000        0.0000000000000000     
   348.70115863423882       -0.0000000000000000        0.0000000000000000     
   348.76871188296496       -0.0000000000000000        0.0000000000000000     
   348.82990585974807       -0.0000000000000000        0.0000000000000000     
   348.88448881118154       -0.0000000000000000        0.0000000000000000     
   348.93223585225121       -0.0000000000000000        0.0000000000000000     
   348.97295000736131       -0.0000000000000000        0.0000000000000000     
   349.00646312634063       -0.0000000000000000        0.0000000000000000     
   349.03263666948470       -0.0000000000000000        0.0000000000000000     
   349.05136235648700       -0.0000000000000000        0.0000000000000000     
   349.06256267497446       -0.0000000000000000        0.0000000000000000     
   349.06619124526361       -0.0000000000000000        0.0000000000000000     
   349.06223303890187       -0.0000000000000000        0.0000000000000000     
   349.05070444952764       -0.0000000000000000        0.0000000000000000     
   349.03165321557429       -0.0000000000000000        0.0000000000000000     
   349.00515819533621       -0.0000000000000000        0.0000000000000000     
   348.97132899590639       -0.0000000000000000        0.0000000000000000     
   348.93030545846096       -0.0000000000000000        0.0000000000000000     
   348.88225700331742       -0.0000000000000000        0.0000000000000000     
   348.82738183908668       -0.0000000000000000        0.0000000000000000     
   348.76590604110424       -0.0000000000000000        0.0000000000000000     
   348.69808250511670       -0.0000000000000000        0.0000000000000000     
   348.62418978293323       -0.0000000000000000        0.0000000000000000     
   348.54453080741098       -0.0000000000000000        0.0000000000000000     
   348.45943151472216       -0.0000000000000000        0.0000000000000000     
   348.36923937235144       -0.0000000000000000        0.0000000000000000     
   348.27432182168019       -0.0000000000000000        0.0000000000000000     
   348.17506464434189       -0.0000000000000000        0.0000000000000000     
   348.07187026176911       -0.0000000000000000        0.0000000000000000     
   347.96515597750255       -0.0000000000000000        0.0000000000000000     
   347.85535217189727       -0.0000000000000000       -0.0000000000000000     
   347.74290045884771       -0.0000000000000000       -0.0000000000000000     
   347.62825181405668       -0.0000000000000000       -0.0000000000000000     
   347.51186468421338       -0.0000000000000000       -0.0000000000000000     
   347.39420308620981       -0.0000000000000000       -0.0000000000000000     
   347.27573470523913       -0.0000000000000000       -0.0000000000000000     
   347.15692900027454       -0.0000000000000000       -0.0000000000000000     
   347.03825532504254       -0.0000000000000000       -0.0000000000000000     
   346.92018107217910       -0.0000000000000000       -0.0000000000000000     
   346.80316984780194       -0.0000000000000000       -0.0000000000000000     
   346.68767968326102       -0.0000000000000000       -0.0000000000000000     
   346.57416129033248       -0.0000000000000000       -0.0000000000000000     
   346.46305636563091       -0.0000000000000000       -0.0000000000000000     
   346.35479594950715       -0.0000000000000000       -0.0000000000000000     
   346.24979884421447       -0.0000000000000000       -0.0000000000000000     
   346.14847009563505       -0.0000000000000000       -0.0000000000000000     
   346.05119954239876       -0.0000000000000000       -0.0000000000000000     
   345.95836043577282       -0.0000000000000000       -0.0000000000000000     
   345.87030813328619       -0.0000000000000000       -0.0000000000000000     
   345.78737886864764       -0.0000000000000000       -0.0000000000000000     
   345.70988860016138       -0.0000000000000000       -0.0000000000000000     
   345.63813193949630       -0.0000000000000000       -0.0000000000000000     
   345.57238116237289       -0.0000000000000000       -0.0000000000000000     
   345.51288530245330       -0.0000000000000000       -0.0000000000000000     
   345.45986932948449       -0.0000000000000000       -0.0000000000000000     
   345.41353341253597       -0.0000000000000000       -0.0000000000000000     
   345.37405226899466       -0.0000000000000000       -0.0000000000000000     
   345.34157459983129       -0.0000000000000000       -0.0000000000000000     
   345.31622261152830       -0.0000000000000000       -0.0000000000000000     
   345.29809162495502       -0.0000000000000000       -0.0000000000000000     
   345.28724977140251       -0.0000000000000000       -0.0000000000000000     
   345.28373777591531       -0.0000000000000000       -0.0000000000000000     
   345.28756882801883       -0.0000000000000000       -0.0000000000000000     
   345.29872853988905       -0.0000000000000000       -0.0000000000000000     
   345.31717499198379       -0.0000000000000000       -0.0000000000000000     
   345.34283886611598       -0.0000000000000000       -0.0000000000000000     
   345.37562366591692       -0.0000000000000000       -0.0000000000000000     
   345.41540602459514       -0.0000000000000000       -0.0000000000000000     
   345.46203609984309       -0.0000000000000000       -0.0000000000000000     
   345.51533805568386       -0.0000000000000000       -0.0000000000000000     
   345.57511063096314       -0.0000000000000000       -0.0000000000000000     
   345.64112779409260       -0.0000000000000000       -0.0000000000000000     
   345.71313948352690       -0.0000000000000000       -0.0000000000000000     
   345.79087243330019       -0.0000000000000000       -0.0000000000000000     
   345.87403108277653       -0.0000000000000000       -0.0000000000000000     
   345.96229856955205       -0.0000000000000000       -0.0000000000000000     
   346.05533780421172       -0.0000000000000000       -0.0000000000000000     
   346.15279262536791       -0.0000000000000000       -0.0000000000000000     
   346.25428903310581       -0.0000000000000000       -0.0000000000000000     
   346.35943649861974       -0.0000000000000000       -0.0000000000000000     
   346.46782934746443        0.0000000000000000       -0.0000000000000000     
   346.57904821343834        0.0000000000000000       -0.0000000000000000     
   346.69266155970308        0.0000000000000000       -0.0000000000000000     
   346.80822726328569        0.0000000000000000       -0.0000000000000000     
   346.92529425865200        0.0000000000000000       -0.0000000000000000     
   347.04340423554680        0.0000000000000000       -0.0000000000000000     
   347.16209338581115        0.0000000000000000       -0.0000000000000000     
   347.28089419338295        0.0000000000000000       -0.0000000000000000     
   347.39933726118892        0.0000000000000000       -0.0000000000000000     
   347.51695316815142        0.0000000000000000       -0.0000000000000000     
   347.63327434905062        0.0000000000000000       -0.0000000000000000     
   347.74783698953860        0.0000000000000000       -0.0000000000000000     
   347.86018292817135        0.0000000000000000       -0.0000000000000000     
   347.96986155694515        0.0000000000000000       -0.0000000000000000     
   348.07643171148163        0.0000000000000000       -0.0000000000000000     
   348.17946354171704        0.0000000000000000       -0.0000000000000000     
   348.27854035372548        0.0000000000000000       -0.0000000000000000     
   348.37326041314464        0.0000000000000000       -0.0000000000000000     
   348.46323870057853        0.0000000000000000       -0.0000000000000000     
   348.54810860934504        0.0000000000000000       -0.0000000000000000     
   348.62752357600203        0.0000000000000000       -0.0000000000000000     
   348.70115863423928        0.0000000000000000       -0.0000000000000000     
   348.76871188296548        0.0000000000000000       -0.0000000000000000     
   348.82990585974846        0.0000000000000000       -0.0000000000000000     
   348.88448881118188        0.0000000000000000       -0.0000000000000000     
   348.93223585225144        0.0000000000000000       -0.0000000000000000     
   348.97295000736153        0.0000000000000000       -0.0000000000000000     
   349.00646312634086        0.0000000000000000       -0.0000000000000000     
   349.03263666948493        0.0000000000000000       -0.0000000000000000     
   349.05136235648723        0.0000000000000000       -0.0000000000000000     
   349.06256267497457        0.0000000000000000       -0.0000000000000000     
   349.06619124526367        0.0000000000000000       -0.0000000000000000     
   349.06223303890187        0.0000000000000000       -0.0000000000000000     
   349.05070444952759        0.0000000000000000       -0.0000000000000000     
   349.03165321557412        0.0000000000000000       -0.0000000000000000     
   349.00515819533598        0.0000000000000000       -0.0000000000000000     
   348.97132899590599        0.0000000000000000       -0.0000000000000000     
   348.93030545846068        0.0000000000000000       -0.0000000000000000     
   348.88225700331714        0.0000000000000000       -0.0000000000000000     
   348.82738183908623        0.0000000000000000       -0.0000000000000000     
   348.76590604110379        0.0000000000000000       -0.0000000000000000     
   348.69808250511613        0.0000000000000000       -0.0000000000000000     
   348.62418978293283        0.0000000000000000       -0.0000000000000000     
   348.54453080741035        0.0000000000000000       -0.0000000000000000     
   348.45943151472159        0.0000000000000000       -0.0000000000000000     
   348.36923937235082        0.0000000000000000       -0.0000000000000000     
   348.27432182167951        0.0000000000000000       -0.0000000000000000     
   348.17506464434115        0.0000000000000000       -0.0000000000000000     
   348.07187026176842        0.0000000000000000       -0.0000000000000000     
   347.96515597750181        0.0000000000000000       -0.0000000000000000     
   347.85535217189664        0.0000000000000000        0.0000000000000000     
   366.04158838957653        11.503320339662425        0.0000000000000000     
   366.63606417814594        11.516317081253682       0.36191484443509125     
   367.22707085373696        11.517802937164776       0.72463873928487943     
   367.81270477974721        11.507680752520677        1.0877961034394199     
   368.39093523328950        11.485862240791626        1.4510018377969260     
   368.95961624664170        11.452269084721342        1.8138612294297007     
   369.51649991565097        11.406834110683445        2.1759699816277660     
   370.05925116743208        11.349502523763697        2.5369143817693893     
   370.58546396054606        11.280233188949190        2.8962716176940289     
   371.09267886856009        11.198999941928244        3.2536102516695533     
   371.57840197273339        11.105792911218217        3.6084908591388407     
   372.04012496193110        11.000619831700503        3.9604668371969787     
   372.47534630827988        10.883507328216890        4.3090853851966342     
   372.88159335623288        10.754502146736169        4.6538886570259796     
   373.25644513142112        10.613672309803336        4.9944150814853598     
   373.59755564491439        10.461108172602790        5.3302008438556880     
   373.90267743930991        10.296923356062322        5.6607815182680978     
   374.16968509658062        10.121255534050364        5.9856938369306389     
   374.39659840495864        9.9342670529134409        6.3044775787364209     
   374.58160486446172        9.7361453633895056        6.6166775563720446     
   374.72308119903641        9.5271032473192747        6.9218456778760311     
   374.81961353861675        9.3073788245454594        7.2195430557775921     
   374.87001593742929        9.0772353288982881        7.5093421345884881     
   374.87334690610300        8.8369606461501657        7.7908288056285544     
   374.82892365479893        8.5868666111959335        8.0636044770310136     
   374.73633377255902        8.3272880663689808        8.3272880663698441     
   374.59544410394989        8.0585816876115182        8.5815178837292194     
   374.40640662711576        7.7811245900410535        8.8259533742188143     
   374.16966118645558        7.4953127291481891        9.0602766909231693     
   373.88593498698816        7.2015591182764034        9.2841940720240039     
   373.55623881447644        6.9002918870317256        9.4974369992856253     
   373.18186000385424        6.5919522087203477        9.6997631191540830     
   372.76435223662457        6.2769921277054443        9.8909569122733707     
   372.30552230390799        5.9558723196245404        10.070830102132737     
   371.80741402401833        5.6290598186568213        10.239221798679647     
   371.27228955031620        5.2970257464474013        10.395998377910789     
   370.70260834534503        4.9602430768842165        10.541053103535114     
   370.10100412993438        4.6191844697153224        10.674305501645481     
   369.47026014035271        4.2743202040477843        10.795700503806760     
   368.81328304245147        3.9261162401674139        10.905207377958662     
   368.13307585904784        3.5750324349613178        11.002818469951107     
   367.43271026592237        3.2215209326264960        11.088547781316386     
   366.71529860340894        2.8660247484285906        11.162429410998426     
   365.98396593549325        2.5089765591571132        11.224515890193702     
   365.24182246769624        2.1507977097253059        11.274876440223405     
   364.49193660998850        1.7918974411937199        11.313595183486006     
   363.73730894280880        1.4326723414534177        11.340769337084090     
   362.98084731420641        1.0735060159695766        11.356507417743179     
   362.22534326539909       0.71476897242410553        11.360927485216477     
   361.47344995172574       0.35681870985473535        11.354155449574307     
   360.72766169708427       -1.1723068211901463E-012   11.336323465689286     
   359.99029529325583      -0.35535465397186039        11.307568435921429     
   359.26347313169208      -0.70892439829244946        11.268030639550236     
   358.54910823480509       -1.0603992677835394        11.217852504953145     
   357.84889123683274       -1.4094793035823354        11.157177537941806     
   357.16427935100438       -1.7558735707794579        11.086149417078511     
   356.49648734991337       -2.0992990981638129        11.004911264233112     
   355.84648057946004       -2.4394797628664726        10.913605096124540     
   355.21497002302908       -2.7761451430477013        10.812371460127883     
   354.60240943121408       -3.1090293619109195        10.701349255220007     
   354.00899453272672       -3.4378699462688966        10.580675736576881     
   353.43466434343298       -3.7624067226395130        10.450486700015148     
   352.87910459196024       -4.0823807734119715        10.310916840177681     
   352.34175328117726       -4.3975334749917883        10.162100274086104     
   351.82180840426645       -4.7076056389901817        10.004171219415532     
   351.31823783124253       -5.0123367764487492        9.8372648145848665     
   350.82979137586506       -5.3114645037573345        9.6615180655045467     
   350.35501504325424       -5.6047241073022995        9.4770709015972745     
   349.89226744457471       -5.8918482819439850        9.2840673215303209     
   349.43973834645703       -6.1725670561385222        9.0826566070074595     
   348.99546929916494       -6.4466079138690038        8.8729945810129855     
   348.55737625883665       -6.7136961205222940        8.6552448851402595     
   348.12327408568848       -6.9735552564418057        8.4295802491430223     
   347.69090276236165       -7.2259079581211552        8.1961837246987042     
   347.25795513543147       -7.4704768629163354        7.9552498546523109     
   346.82210593958752       -7.7069857488043008        7.7069857488019062     
   346.38104181951337       -7.9351608561858082        7.4516120376723727     
   345.93249202070592       -8.1547323741260733        7.1893636767732456     
   345.47425937921173       -8.3654360688743896        6.9204905756037780     
   345.00425120351628       -8.5670150281488802        6.6452580281869666     
   344.52050961163462       -8.7592214906724273        6.3639469251898158     
   344.02124086476891       -8.9418187269645912        6.0768537316938760     
   343.50484322755233       -9.1145829345946368        5.7842902193581605     
   342.96993288534901       -9.2773051091328718        5.4865829469689205     
   342.41536746245458       -9.4297928510327598        5.1840724890672520     
   341.84026671190850       -9.5718720687345016        4.8771124183229961     
   341.24402998799610       -9.7033885394649122        4.5660680533943987     
   340.62635016575894       -9.8242092915355599        4.2513149899715472     
   339.98722373668051       -9.9342237753799143        3.9332374383350555     
   339.32695688430289       -10.033344795038657        3.6122263958598304     
   338.64616742547076       -10.121509177170212        3.2886776872626329     
   337.94578258937076       -10.198678160756709        2.9629899088630056     
   337.22703269446970       -10.264837497285649        2.6355623155671446     
   336.49144086966061       -10.319997258080637        2.3067926906049010     
   335.74080904728726       -10.364191352384571        1.9770752382107117     
   334.97720052935358       -10.397476766520951        1.6467985384506945     
   334.20291949165278       -10.419932540741637        1.3163436013201648     
   333.42048784178877       -10.431658506006976       0.98608205417363659     
   332.63261988475006       -10.432773807765841       0.65637449264605685     
   331.84219527310870       -10.423415247681575       0.32756902065182747     
   331.05223072799942       -10.403735477103663       -2.1517328969273486E-012
   330.26585101233246       -10.373901077882003      -0.32601297518309597     
   329.48625962032486       -10.334090566873973      -0.65016586938614496     
   328.71670961893938       -10.284492360259582      -0.97217075759744342     
   327.96047503910535       -10.225302732647835       -1.2917561386409260     
   327.22082316973842       -10.156723804045454       -1.6086670152368987     
   326.50098805777691       -10.078961585204725       -1.9226647501491123     
   325.80414546487094       -9.9922241088172061       -2.2335267113663346     
   325.13338947802436       -9.8967196706231935       -2.5410457222112579     
   324.49171091923790       -9.7926552009064824       -2.8450293345812097     
   323.88197764960887       -9.6802347831725370       -3.1452989452140709     
   323.30691681769281       -9.5596583331819840       -3.4416887759744510     
   322.76909906118777       -9.4311204480274196       -3.7340447397214978     
   322.27092463584813       -9.2948094316778231       -4.0222232134154092     
   321.81461141633861       -9.1509065004269612       -4.3060897398165690     
   321.40218469064450       -8.9995851690072630       -4.5855176785045177     
   321.03546865254197       -8.8410108157863068       -4.8603868260678826     
   320.71607948525337       -8.6753404234519707       -5.1305820242615194     
   320.44541992331909       -8.5027224899024656       -5.3959917737576424     
   320.22467517840386       -8.3232971026668938       -5.6565068698896495     
   320.05481011761242       -8.1371961690601111       -5.9120190755475610     
   319.93656758929058       -7.9445437933867602       -6.1624198451696683     
   319.87046780057591       -7.7454567918143420       -6.4075991126132745     
   319.85680866248481       -7.5400453349942573       -6.6474441545956795     
   319.89566703145886       -7.3284137080838709       -6.8818385403840407     
   319.98690079042871       -7.1106611774753503       -7.1106611774790300     
   320.13015172701932       -6.8868829532352640       -7.3337854621759710     
   320.32484918099613       -6.6571712359751638       -7.5510785430852412     
   320.57021444691867       -6.4216163365842922       -7.7624007049326575     
   320.86526593079526       -6.1803078569454630       -7.9676048792187046     
   321.20882507089146       -5.9333359194137509       -8.1665362875679133     
   321.59952304234650       -5.6807924324613879       -8.3590322228200407     
   322.03580827258776       -5.4227723794856679       -8.5449219720768088     
   322.51595479937225       -5.1593751173484126       -8.7240268849966078     
   323.03807150540740       -4.8907056707839809       -8.8961605896011182     
   323.60011226269290       -4.6168760083985552       -9.0611293567039528     
   324.19988701585737       -4.3380062856159780       -9.2187326127765647     
   324.83507382675936       -4.0542260396351031       -9.3687635996236818     
   325.50323189249758       -3.7656753212875769       -9.5110101776471954     
   326.20181553581028       -3.4725057486584352       -9.6452557677415278     
   326.92818915083529       -3.1748814674945658       -9.7712804250004535     
   327.67964306863990       -2.8729800038120179       -9.8888620354509573     
   328.45341028618776       -2.5669929947571477       -9.9977776249975818     
   329.24668398000892       -2.2571267847042429       -10.097804767705977     
   330.05663570235504       -1.9436028748057250       -10.188723078527412     
   330.88043413375732       -1.6266582157590719       -10.270315773627386     
   331.71526424241443       -1.3065453354194201       -10.342371279693806     
   332.55834667853912      -0.98353229505383399       -10.404684872031533     
   333.40695721154083      -0.65790247047885053       -10.457060319967018     
   334.25844600053591      -0.32995415700683767       -10.499311517153183     
   335.11025647498252        3.2718399570656491E-012  -10.531264073839131     
   335.95994359292888       0.33163374420247405       -10.552756848099651     
   336.80519124007532       0.66460810908796941       -10.563643393442193     
   337.64382853401332       0.99857246978679215       -10.563793301144527     
   338.47384480492138        1.3331657320729846       -10.553093417128554     
   339.29340303671955        1.6680176422326212       -10.531448915129065     
   340.10085157109268        2.0027501990164787       -10.498784210336913     
   340.89473390050370        2.3369791469192354       -10.455043700530927     
   341.67379640478032        2.6703155284673672       -10.400192324892410     
   342.43699391828898        3.0023672721370755       -10.334215934135914     
   343.18349305019137        3.3327407919984786       -10.257121469194576     
   343.91267321776166        3.6610425752094722       -10.168936949365717     
   344.62412539109687        3.9868807340635004       -10.069711274446576     
   345.31764858562877        4.3098665004077557       -9.9595138488684398     
   345.99324417552975        4.6296156418545502       -9.8384340390728688     
   346.65110813531970        4.9457497812530704       -9.7065804782788749     
   347.29162134783644        5.2578976033018829       -9.5640802352936483     
   347.91533814341869        5.5656959348864836       -9.4110778660636427     
   348.52297325709480        5.8687906886332444       -9.2477343682106774     
   349.11538740739690        6.1668376621952730       -9.0742260598291953     
   349.69357171190978        6.4595031888373891       -8.8907434043351046     
   350.25863116088357        6.7464646378869597       -8.6974898031701642     
   350.81176737135223        7.0274107664877832       -8.4946803777104094     
   351.35426084060617        7.3020419267735441       -8.2825407608465511     
   351.88745291006427        7.5700701350111581       -8.0613059174539679     
   352.41272763918687        7.8312190114148308       -7.8312190114091580     
   352.93149377476078        8.0852236011706644       -7.5925303350045041     