 VARIABLES = "x_1", "x_2", "x_3"
 ZONE F = POINT , I =         201  , J =         101
   2345.9625213746008        0.0000000000000000        0.0000000000000000     
   2345.9625213746008        0.0000000000000000        0.0000000000000000     
   2345.9625213746008        0.0000000000000000        0.0000000000000000     
   2345.9625213746008        0.0000000000000000        0.0000000000000000     
   2345.9625213746008        0.0000000000000000        0.0000000000000000     
   2345.9625213746008        0.0000000000000000        0.0000000000000000     
   2345.9625213746008        0.0000000000000000        0.0000000000000000     
   2345.9625213746008        0.0000000000000000        0.0000000000000000     
   2345.9625213746008        0.0000000000000000        0.0000000000000000     
   2345.9625213746008        0.0000000000000000        0.0000000000000000     
   2345.9625213746008        0.0000000000000000        0.0000000000000000     
   2345.9625213746008        0.0000000000000000        0.0000000000000000     
   2345.9625213746008        0.0000000000000000        0.0000000000000000     
   2345.9625213746008        0.0000000000000000        0.0000000000000000     
   2345.9625213746008        0.0000000000000000        0.0000000000000000     
   2345.9625213746008        0.0000000000000000        0.0000000000000000     
   2345.9625213746008        0.0000000000000000        0.0000000000000000     
   2345.9625213746008        0.0000000000000000        0.0000000000000000     
   2345.9625213746008        0.0000000000000000        0.0000000000000000     
   2345.9625213746008        0.0000000000000000        0.0000000000000000     
   2345.9625213746008        0.0000000000000000        0.0000000000000000     
   2345.9625213746008        0.0000000000000000        0.0000000000000000     
   2345.9625213746008        0.0000000000000000        0.0000000000000000     
   2345.9625213746008        0.0000000000000000        0.0000000000000000     
   2345.9625213746008        0.0000000000000000        0.0000000000000000     
   2345.9625213746008        0.0000000000000000        0.0000000000000000     
   2345.9625213746008        0.0000000000000000        0.0000000000000000     
   2345.9625213746008        0.0000000000000000        0.0000000000000000     
   2345.9625213746008        0.0000000000000000        0.0000000000000000     
   2345.9625213746008        0.0000000000000000        0.0000000000000000     
   2345.9625213746008        0.0000000000000000        0.0000000000000000     
   2345.9625213746008        0.0000000000000000        0.0000000000000000     
   2345.9625213746008        0.0000000000000000        0.0000000000000000     
   2345.9625213746008        0.0000000000000000        0.0000000000000000     
   2345.9625213746008        0.0000000000000000        0.0000000000000000     
   2345.9625213746008        0.0000000000000000        0.0000000000000000     
   2345.9625213746008        0.0000000000000000        0.0000000000000000     
   2345.9625213746008        0.0000000000000000        0.0000000000000000     
   2345.9625213746008        0.0000000000000000        0.0000000000000000     
   2345.9625213746008        0.0000000000000000        0.0000000000000000     
   2345.9625213746008        0.0000000000000000        0.0000000000000000     
   2345.9625213746008        0.0000000000000000        0.0000000000000000     
   2345.9625213746008        0.0000000000000000        0.0000000000000000     
   2345.9625213746008        0.0000000000000000        0.0000000000000000     
   2345.9625213746008        0.0000000000000000        0.0000000000000000     
   2345.9625213746008        0.0000000000000000        0.0000000000000000     
   2345.9625213746008        0.0000000000000000        0.0000000000000000     
   2345.9625213746008        0.0000000000000000        0.0000000000000000     
   2345.9625213746008        0.0000000000000000        0.0000000000000000     
   2345.9625213746008        0.0000000000000000        0.0000000000000000     
   2345.9625213746008       -0.0000000000000000        0.0000000000000000     
   2345.9625213746008       -0.0000000000000000        0.0000000000000000     
   2345.9625213746008       -0.0000000000000000        0.0000000000000000     
   2345.9625213746008       -0.0000000000000000        0.0000000000000000     
   2345.9625213746008       -0.0000000000000000        0.0000000000000000     
   2345.9625213746008       -0.0000000000000000        0.0000000000000000     
   2345.9625213746008       -0.0000000000000000        0.0000000000000000     
   2345.9625213746008       -0.0000000000000000        0.0000000000000000     
   2345.9625213746008       -0.0000000000000000        0.0000000000000000     
   2345.9625213746008       -0.0000000000000000        0.0000000000000000     
   2345.9625213746008       -0.0000000000000000        0.0000000000000000     
   2345.9625213746008       -0.0000000000000000        0.0000000000000000     
   2345.9625213746008       -0.0000000000000000        0.0000000000000000     
   2345.9625213746008       -0.0000000000000000        0.0000000000000000     
   2345.9625213746008       -0.0000000000000000        0.0000000000000000     
   2345.9625213746008       -0.0000000000000000        0.0000000000000000     
   2345.9625213746008       -0.0000000000000000        0.0000000000000000     
   2345.9625213746008       -0.0000000000000000        0.0000000000000000     
   2345.9625213746008       -0.0000000000000000        0.0000000000000000     
   2345.9625213746008       -0.0000000000000000        0.0000000000000000     
   2345.9625213746008       -0.0000000000000000        0.0000000000000000     
   2345.9625213746008       -0.0000000000000000        0.0000000000000000     
   2345.9625213746008       -0.0000000000000000        0.0000000000000000     
   2345.9625213746008       -0.0000000000000000        0.0000000000000000     
   2345.9625213746008       -0.0000000000000000        0.0000000000000000     
   2345.9625213746008       -0.0000000000000000        0.0000000000000000     
   2345.9625213746008       -0.0000000000000000        0.0000000000000000     
   2345.9625213746008       -0.0000000000000000        0.0000000000000000     
   2345.9625213746008       -0.0000000000000000        0.0000000000000000     
   2345.9625213746008       -0.0000000000000000        0.0000000000000000     
   2345.9625213746008       -0.0000000000000000        0.0000000000000000     
   2345.9625213746008       -0.0000000000000000        0.0000000000000000     
   2345.9625213746008       -0.0000000000000000        0.0000000000000000     
   2345.9625213746008       -0.0000000000000000        0.0000000000000000     
   2345.9625213746008       -0.0000000000000000        0.0000000000000000     
   2345.9625213746008       -0.0000000000000000        0.0000000000000000     
   2345.9625213746008       -0.0000000000000000        0.0000000000000000     
   2345.9625213746008       -0.0000000000000000        0.0000000000000000     
   2345.9625213746008       -0.0000000000000000        0.0000000000000000     
   2345.9625213746008       -0.0000000000000000        0.0000000000000000     
   2345.9625213746008       -0.0000000000000000        0.0000000000000000     
   2345.9625213746008       -0.0000000000000000        0.0000000000000000     
   2345.9625213746008       -0.0000000000000000        0.0000000000000000     
   2345.9625213746008       -0.0000000000000000        0.0000000000000000     
   2345.9625213746008       -0.0000000000000000        0.0000000000000000     
   2345.9625213746008       -0.0000000000000000        0.0000000000000000     
   2345.9625213746008       -0.0000000000000000        0.0000000000000000     
   2345.9625213746008       -0.0000000000000000        0.0000000000000000     
   2345.9625213746008       -0.0000000000000000        0.0000000000000000     
   2345.9625213746008       -0.0000000000000000        0.0000000000000000     
   2345.9625213746008       -0.0000000000000000       -0.0000000000000000     
   2345.9625213746008       -0.0000000000000000       -0.0000000000000000     
   2345.9625213746008       -0.0000000000000000       -0.0000000000000000     
   2345.9625213746008       -0.0000000000000000       -0.0000000000000000     
   2345.9625213746008       -0.0000000000000000       -0.0000000000000000     
   2345.9625213746008       -0.0000000000000000       -0.0000000000000000     
   2345.9625213746008       -0.0000000000000000       -0.0000000000000000     
   2345.9625213746008       -0.0000000000000000       -0.0000000000000000     
   2345.9625213746008       -0.0000000000000000       -0.0000000000000000     
   2345.9625213746008       -0.0000000000000000       -0.0000000000000000     
   2345.9625213746008       -0.0000000000000000       -0.0000000000000000     
   2345.9625213746008       -0.0000000000000000       -0.0000000000000000     
   2345.9625213746008       -0.0000000000000000       -0.0000000000000000     
   2345.9625213746008       -0.0000000000000000       -0.0000000000000000     
   2345.9625213746008       -0.0000000000000000       -0.0000000000000000     
   2345.9625213746008       -0.0000000000000000       -0.0000000000000000     
   2345.9625213746008       -0.0000000000000000       -0.0000000000000000     
   2345.9625213746008       -0.0000000000000000       -0.0000000000000000     
   2345.9625213746008       -0.0000000000000000       -0.0000000000000000     
   2345.9625213746008       -0.0000000000000000       -0.0000000000000000     
   2345.9625213746008       -0.0000000000000000       -0.0000000000000000     
   2345.9625213746008       -0.0000000000000000       -0.0000000000000000     
   2345.9625213746008       -0.0000000000000000       -0.0000000000000000     
   2345.9625213746008       -0.0000000000000000       -0.0000000000000000     
   2345.9625213746008       -0.0000000000000000       -0.0000000000000000     
   2345.9625213746008       -0.0000000000000000       -0.0000000000000000     
   2345.9625213746008       -0.0000000000000000       -0.0000000000000000     
   2345.9625213746008       -0.0000000000000000       -0.0000000000000000     
   2345.9625213746008       -0.0000000000000000       -0.0000000000000000     
   2345.9625213746008       -0.0000000000000000       -0.0000000000000000     
   2345.9625213746008       -0.0000000000000000       -0.0000000000000000     
   2345.9625213746008       -0.0000000000000000       -0.0000000000000000     
   2345.9625213746008       -0.0000000000000000       -0.0000000000000000     
   2345.9625213746008       -0.0000000000000000       -0.0000000000000000     
   2345.9625213746008       -0.0000000000000000       -0.0000000000000000     
   2345.9625213746008       -0.0000000000000000       -0.0000000000000000     
   2345.9625213746008       -0.0000000000000000       -0.0000000000000000     
   2345.9625213746008       -0.0000000000000000       -0.0000000000000000     
   2345.9625213746008       -0.0000000000000000       -0.0000000000000000     
   2345.9625213746008       -0.0000000000000000       -0.0000000000000000     
   2345.9625213746008       -0.0000000000000000       -0.0000000000000000     
   2345.9625213746008       -0.0000000000000000       -0.0000000000000000     
   2345.9625213746008       -0.0000000000000000       -0.0000000000000000     
   2345.9625213746008       -0.0000000000000000       -0.0000000000000000     
   2345.9625213746008       -0.0000000000000000       -0.0000000000000000     
   2345.9625213746008       -0.0000000000000000       -0.0000000000000000     
   2345.9625213746008       -0.0000000000000000       -0.0000000000000000     
   2345.9625213746008       -0.0000000000000000       -0.0000000000000000     
   2345.9625213746008       -0.0000000000000000       -0.0000000000000000     
   2345.9625213746008       -0.0000000000000000       -0.0000000000000000     
   2345.9625213746008        0.0000000000000000       -0.0000000000000000     
   2345.9625213746008        0.0000000000000000       -0.0000000000000000     
   2345.9625213746008        0.0000000000000000       -0.0000000000000000     
   2345.9625213746008        0.0000000000000000       -0.0000000000000000     
   2345.9625213746008        0.0000000000000000       -0.0000000000000000     
   2345.9625213746008        0.0000000000000000       -0.0000000000000000     
   2345.9625213746008        0.0000000000000000       -0.0000000000000000     
   2345.9625213746008        0.0000000000000000       -0.0000000000000000     
   2345.9625213746008        0.0000000000000000       -0.0000000000000000     
   2345.9625213746008        0.0000000000000000       -0.0000000000000000     
   2345.9625213746008        0.0000000000000000       -0.0000000000000000     
   2345.9625213746008        0.0000000000000000       -0.0000000000000000     
   2345.9625213746008        0.0000000000000000       -0.0000000000000000     
   2345.9625213746008        0.0000000000000000       -0.0000000000000000     
   2345.9625213746008        0.0000000000000000       -0.0000000000000000     
   2345.9625213746008        0.0000000000000000       -0.0000000000000000     
   2345.9625213746008        0.0000000000000000       -0.0000000000000000     
   2345.9625213746008        0.0000000000000000       -0.0000000000000000     
   2345.9625213746008        0.0000000000000000       -0.0000000000000000     
   2345.9625213746008        0.0000000000000000       -0.0000000000000000     
   2345.9625213746008        0.0000000000000000       -0.0000000000000000     
   2345.9625213746008        0.0000000000000000       -0.0000000000000000     
   2345.9625213746008        0.0000000000000000       -0.0000000000000000     
   2345.9625213746008        0.0000000000000000       -0.0000000000000000     
   2345.9625213746008        0.0000000000000000       -0.0000000000000000     
   2345.9625213746008        0.0000000000000000       -0.0000000000000000     
   2345.9625213746008        0.0000000000000000       -0.0000000000000000     
   2345.9625213746008        0.0000000000000000       -0.0000000000000000     
   2345.9625213746008        0.0000000000000000       -0.0000000000000000     
   2345.9625213746008        0.0000000000000000       -0.0000000000000000     
   2345.9625213746008        0.0000000000000000       -0.0000000000000000     
   2345.9625213746008        0.0000000000000000       -0.0000000000000000     
   2345.9625213746008        0.0000000000000000       -0.0000000000000000     
   2345.9625213746008        0.0000000000000000       -0.0000000000000000     
   2345.9625213746008        0.0000000000000000       -0.0000000000000000     
   2345.9625213746008        0.0000000000000000       -0.0000000000000000     
   2345.9625213746008        0.0000000000000000       -0.0000000000000000     
   2345.9625213746008        0.0000000000000000       -0.0000000000000000     
   2345.9625213746008        0.0000000000000000       -0.0000000000000000     
   2345.9625213746008        0.0000000000000000       -0.0000000000000000     
   2345.9625213746008        0.0000000000000000       -0.0000000000000000     
   2345.9625213746008        0.0000000000000000       -0.0000000000000000     
   2345.9625213746008        0.0000000000000000       -0.0000000000000000     
   2345.9625213746008        0.0000000000000000       -0.0000000000000000     
   2345.9625213746008        0.0000000000000000       -0.0000000000000000     
   2345.9625213746008        0.0000000000000000       -0.0000000000000000     
   2345.9625213746008        0.0000000000000000       -0.0000000000000000     
   2345.9625213746008        0.0000000000000000       -0.0000000000000000     
   2345.9625213746008        0.0000000000000000       -0.0000000000000000     
   2345.9625213746008        0.0000000000000000       -0.0000000000000000     
   2345.9625213746008        0.0000000000000000        0.0000000000000000     
   2435.5871701502115        76.541410380918336        0.0000000000000000     
   2443.1885632501971        76.742407342695387        2.4117273099589291     
   2450.7546445479206        76.866089903505284        4.8360044693684818     
   2458.2771455361071        76.911613504452845        7.2702880170755888     
   2465.7476519031588        76.878215888727624        9.7119772292693245     
   2473.1576123043833        76.765220956060503        12.158416557515821     
   2480.4983481479630        76.572042589727133        14.606898328706038     
   2487.7610644164142        76.298188438857295        17.054665713162859     
   2494.9368615391486        75.943263637731079        19.498915966071902     
   2502.0167483262912        75.506974442722054        21.936803946182710     
   2508.9916559677386        74.989131766589765        24.365445914371445     
   2515.8524530949485        74.389654588952141        26.781923613166104     
   2522.5899618958506        73.708573220996442        29.183288626712283     
   2529.1949752658006        72.946032401831673        31.566567018907701     
   2535.6582749696063        72.102294203366910        33.928764245564196     
   2541.9706507814071        71.177740720231057        36.266870334476415     
   2548.1229205606282        70.172876521049432        38.577865325198765     
   2554.1059512134730        69.088330837378606        40.858724958170221     
   2559.9106804804846        67.924859466783261        43.106426600598517     
   2565.5281394816766        66.683346366936462        45.317955394236876     
   2570.9494759417762        65.364804918244971        47.490310607883082     
   2576.1659780092236        63.970378833356236        49.620512175120730     
   2581.1690985739319        62.501342693000545        51.705607395535928     
   2585.9504799804690        60.959102088963427        53.742677775401035     
   2590.5019790254369        59.345193356573887        55.728845981653407     
   2594.8156921204882        57.661282880929420        57.661282880935396     
   2598.8839804957370        55.909165963156042        59.537214633535861     
   2602.6994953124376        54.090765235309249        61.353929810309928     
   2606.2552025487712        52.208128615050910        63.108786499082008     
   2609.5444075186065        50.263426793968144        64.799219365689140     
   2612.5607788801162        48.258950256314492        66.422746633717651     
   2615.2983719894105        46.197105828027837        67.976976946158629     
   2617.7516514538206        44.080412759085526        69.459616071674006     
   2619.9155127402514        41.911498345564048        70.868473417946120     
   2621.7853026961748        39.693093101146950        72.201468314697010     
   2623.3568388443750        37.428025491232589        73.456636029420778     
   2624.6264273174379        35.119216246194931        74.632133479678473     
   2625.5908793043191        32.769672273709375        75.726244606969090     
   2626.2475258889526        30.382480193327041        76.737385378704957     
   2626.5942311698273        27.960799519628267        77.664108386681676     
   2626.6294035596684        25.507855523268173        78.505107012629438     
   2626.3520051756855        23.026931802004412        79.259219133946701     
   2625.7615592432699        20.521362596334562        79.925430345527715     
   2624.8581554493007        17.994524886632444        80.502876676674362     
   2623.6424531953412        15.449830310628544        80.990846785401743     
   2622.1156827157083        12.890716941702140        81.388783615968222     
   2620.2796440405850        10.320640969718625        81.696285509148566     
   2618.1367037998248        7.7430683270375074        81.913106758579900     
   2615.6897898786892        5.1614663028201395        82.039157610404416     
   2612.9423839523020        2.5792951888752285        82.074503707361615     
   2609.8985119408385       -8.4817499544338043E-012   82.019364982404454     
   2606.5627324423895       -2.5729976889751032        81.874114010780801     
   2602.9401232146697       -5.1363077480599397        81.639273833291469     
   2599.0362657902551       -7.6865792994303108        81.315515267063446     
   2594.8572283226767       -10.220508288933848        80.903653723624558     
   2590.4095467722423       -12.734844786094042        80.404645557293591     
   2585.7002045508980       -15.226399979104887        79.819583969875410     
   2580.7366107546263       -17.692052834055527        79.149694500344026     
   2575.5265771196678       -20.128756390524561        78.396330130580239     
   2570.0782938453308       -22.533543668786166        77.560966040288406     
   2564.4003044311421       -24.903533167125850        76.645194045928704     
   2558.5014796796186       -27.235933931132518        75.650716759859137     
   2552.3909910180632       -29.528050180275446        74.579341506880326     
   2546.0782832934183       -31.777285480547015        73.432974036015082     
   2539.5730471935117       -33.981146455418752        72.213612065637477     
   2532.8851914459142       -36.137246030777419        70.923338700004493     
   2526.0248149423487       -38.243306212847109        69.564315754848451     
   2519.0021789320690       -40.297160401327673        68.138777028980016     
   2511.8276794220169       -42.296755243058541        66.649021557846595     
   2504.5118199150652       -44.240152034425904        65.097406883719643     
   2497.0651846102305       -46.125527683443757        63.486342375665281     
   2489.4984121805937       -47.951175244937986        61.818282630719715     
   2481.8221702359365       -49.715504044531585        60.095720985769567     
   2474.0471305678943       -51.417039409155940        58.321183167560342     
   2466.1839452658041       -53.054422023589581        56.497221106051121     
   2458.2432237816120       -54.626406934048610        54.626406934031635     
   2450.2355110122821       -56.131862221120471        52.711327193550993     
   2442.1712664581300       -57.569767365346387        50.754577267296625     
   2434.0608445056823       -58.939211329525577        48.758756050643576     
   2425.9144758739235       -60.239390382340893        46.726460877685170     
   2417.7422502534046       -61.469605688204169        44.660282712185030     
   2409.5541001585775       -62.629260688300654        42.562801612074722     
   2401.3597860050641       -63.717858297690555        40.436582473882787     
   2393.1688824153662       -64.734997943017390        38.284171061333637     
   2384.9907657488302       -65.680372464893722        36.108090320314382     
   2376.8346028445303       -66.553764908400311        33.910836980484476     
   2368.7093409591780       -67.355045224367132        31.694878442008388     
   2360.6236988762180       -68.084166903215873        29.462649944230236     
   2352.5861591568464       -68.741163562153574        27.216552011587442     
   2344.6049614989861       -69.326145505435022        24.958948170681989     
   2336.6880971660712       -69.839296276270005        22.692162931191206     
   2328.8433044439143       -70.280869217758564        20.418480022207941     
   2321.0780650809484       -70.651184059008159        18.140140874646946     
   2313.3996016646770       -70.950623541333897        15.859343339539693     
   2305.8148758852594       -71.179630098180354        13.578240631357311     
   2298.3305876357094       -71.338702601142217        11.298940484946073     
   2290.9531748972477       -71.428393183212251        9.0235045142250172     
   2283.6888143578053       -71.449304149157939        6.7539477604743094     
   2276.5434227115402       -71.402084981730411        4.4922384178278580     
   2269.5226585874698       -71.287429451249380        2.2402977234669761     
   2262.6319250558536       -71.106072834989689       -1.4706378918137780E-011
   2255.8763726618290       -70.858789251726876       -2.2268271625493341     
   2249.2609029368755       -70.546389115780158       -4.4384025971807448     
   2242.7901723400182       -70.169716713930072       -6.6329911354475035     
   2236.4685965821932       -69.729647907682050       -8.8089030794586716     
   2230.3003552888481       -69.227087962500420       -10.964493582253507     
   2224.2893969576753       -68.662969504850182       -13.098161947688125     
   2218.4394441702279       -68.038250607154765       -15.208350860707952     
   2212.7539990182204       -67.353913000110083       -17.293545558448834     
   2207.2363487072494       -66.610960411181409       -19.352272952170956     
   2201.8895713028137       -65.810417027556099       -21.383100709570975     
   2196.7165415855316       -64.953326081323198       -23.384636306545598     
   2191.7199369845512       -64.040748554203617       -25.355526056998556     
   2186.9022435601705       -63.073761998755856       -27.294454128796403     
   2182.2657620087257       -62.053459472632817       -29.200141553490916     
   2177.8126136647347       -60.980948582160032       -31.071345236940012     
   2173.5447464772428       -59.857350631243584       -32.906856977478704     
   2169.4639409390966       -58.683799871392942       -34.705502497817456     
   2165.5718159497178       -57.461442848460074       -36.466140496382607     
   2161.8698345935795       -56.191437841543362       -38.187661723360179     
   2158.3593098182496       -54.874954389388208       -39.868988086265816     
   2155.0414099973582       -53.513172899524044       -41.509071789437691     
   2151.9171643653190       -52.107284335316216       -43.106894511440316     
   2148.9874683119574       -50.658489976071458       -44.661466623971762     
   2146.2530885264914       -49.168001245318891       -46.171826455490489     
   2143.7146679814596       -47.637039602391667       -47.637039602416323     
   2141.3727307483105       -46.066836492454932       -49.056198290417250     
   2139.2276866373372       -44.458633350161769       -50.428420787966175     
   2137.2798356555954       -42.813681652169748       -51.752850874042942     
   2135.5293722772544       -41.133243013812354       -53.028657361563539     
   2133.9763895216297       -39.418589325293638       -54.255033677842853     
   2132.6208828347840       -37.671002922854861       -55.431197503136737     
   2131.4627537712668       -35.891776790454394       -56.556390468065139     
   2130.5018134730590       -34.082214787595255       -57.629877910490180     
   2129.7377859433204       -32.243631899039379       -58.650948692207514     
   2129.1703111129500       -30.377354502250455       -59.618915075612129     
   2128.7989476983653       -28.484720648519207       -60.533112660312099     
   2128.6231758492145       -26.567080353832591       -61.392900379492971     
   2128.6423995850682       -24.625795895664698       -62.197660555675633     
   2128.8559490203224       -22.662242111976344       -62.946799015362892     
   2129.2630823768131       -20.677806698826927       -63.639745261934465     
   2129.8629877837952       -18.673890503110655       -64.275952706025805     
   2130.6547848650903       -16.651907807043049       -64.854898952510666     
   2131.6375261133721       -14.613286601128891       -65.376086143104544     
   2132.8101980516185       -12.559468842451501       -65.839041353508208     
   2134.1717221819349       -10.491910695222801       -66.243317043926879     
   2135.7209557219762       -8.4120827506353262       -66.588491561718314     
   2137.4566921293413       -6.3214702231493005       -66.874169694854018     
   2139.3776614143649       -4.2215731204395386       -67.099983274810910     
   2141.4825302418649       -2.1139063843122501       -67.265591827452894     
   2143.7699018224703        2.0930639656685931E-011  -67.370683270406147     
   2146.2383155942903        2.1186009288469432       -67.414974655383915     
   2148.8862466958403        4.2403361415046179       -67.398212953869390     
   2151.7121052312386        6.3636302209932092       -67.320175884522541     
   2154.7142353289505        8.4868926359908627       -67.180672780635817     
   2157.8909139954685        10.608517826585556       -66.979545495922849     
   2161.2403497656687        12.726885335983493       -66.716669346885666     
   2164.7606811517549        14.840359990421241       -66.391954089963875     
   2168.4499748931148        16.947292129484307       -66.005344931628443     
   2172.3062240097079        19.046017889009640       -65.556823569536590     
   2176.3273456620605        21.134859538739338       -65.046409262816141     
   2180.5111788213803        23.212125876880837       -64.474159929493879     
   2184.8554817538211        25.276112683730222       -63.840173269022202     
   2189.3579293235198        27.325103236516782       -63.144587907792761     
   2194.0161101196231        29.357368887635250       -62.387584565449700     
   2198.8275234132589        31.371169708447081       -61.569387239731171     
   2203.7895759511184        33.364755200844819       -60.690264407473201     
   2208.8995785931752        35.336365078795708       -59.750530239302627     
   2214.1547428029444        37.284230122097213       -58.750545825428276     
   2219.5521769996349        39.206573104599997       -57.690720409804477     
   2225.0888827825943        41.101609799169431       -56.571512629795819     
   2230.7617510395380        42.967550061675041       -55.393431758306939     
   2236.5675579512208        44.802598996304916       -54.157038945163400     
   2242.5029609064463        46.604958204509231       -52.862948454331537     
   2248.5644943426209        48.372827119868887       -51.511828893353055     
   2254.7485655284218        50.104404431172597       -50.104404431136302     
   2261.0514503065833        51.797889595953322       -48.641455999998193     