 VARIABLES = "x_1", "x_2", "x_3"
 ZONE F = POINT , I =         201  , J =         101
   6207.3818946690744        0.0000000000000000        0.0000000000000000     
   6210.2520827423496        0.0000000000000000        0.0000000000000000     
   6215.1430798249958        0.0000000000000000        0.0000000000000000     
   6222.0498330908713        0.0000000000000000        0.0000000000000000     
   6230.9650758113503        0.0000000000000000        0.0000000000000000     
   6241.8791992761971        0.0000000000000000        0.0000000000000000     
   6254.7800868562199        0.0000000000000000        0.0000000000000000     
   6269.6529099862146        0.0000000000000000        0.0000000000000000     
   6286.4798858831919        0.0000000000000000        0.0000000000000000     
   6305.2399969072612        0.0000000000000000        0.0000000000000000     
   6325.9086716333841        0.0000000000000000        0.0000000000000000     
   6348.4574279452081        0.0000000000000000        0.0000000000000000     
   6372.8534788023535        0.0000000000000000        0.0000000000000000     
   6399.0593017851970        0.0000000000000000        0.0000000000000000     
   6427.0321741028747        0.0000000000000000        0.0000000000000000     
   6456.7236754768892        0.0000000000000000        0.0000000000000000     
   6488.0791622004599        0.0000000000000000        0.0000000000000000     
   6521.0372167365595        0.0000000000000000        0.0000000000000000     
   6555.5290784670706        0.0000000000000000        0.0000000000000000     
   6591.4780626487272        0.0000000000000000        0.0000000000000000     
   6628.7989762693851        0.0000000000000000        0.0000000000000000     
   6667.3975413227654        0.0000000000000000        0.0000000000000000     
   6707.1698380121024        0.0000000000000000        0.0000000000000000     
   6748.0017825194918        0.0000000000000000        0.0000000000000000     
   6789.7686561875926        0.0000000000000000        0.0000000000000000     
   6832.3347051821156        0.0000000000000000        0.0000000000000000     
   6875.5528318431452        0.0000000000000000        0.0000000000000000     
   6919.2644008713141        0.0000000000000000        0.0000000000000000     
   6963.2991850862763        0.0000000000000000        0.0000000000000000     
   7007.4754765707121        0.0000000000000000        0.0000000000000000     
   7051.6003893832949        0.0000000000000000        0.0000000000000000     
   7095.4703794855068        0.0000000000000000        0.0000000000000000     
   7138.8720058734052        0.0000000000000000        0.0000000000000000     
   7181.5829539418273        0.0000000000000000        0.0000000000000000     
   7223.3733376703640        0.0000000000000000        0.0000000000000000     
   7264.0072911951220        0.0000000000000000        0.0000000000000000     
   7303.2448526812941        0.0000000000000000        0.0000000000000000     
   7340.8441342019914        0.0000000000000000        0.0000000000000000     
   7376.5637607435783        0.0000000000000000        0.0000000000000000     
   7410.1655498187665        0.0000000000000000        0.0000000000000000     
   7441.4173909400706        0.0000000000000000        0.0000000000000000     
   7470.0962719886156        0.0000000000000000        0.0000000000000000     
   7495.9913880190597        0.0000000000000000        0.0000000000000000     
   7518.9072580564743        0.0000000000000000        0.0000000000000000     
   7538.6667677674795        0.0000000000000000        0.0000000000000000     
   7555.1140512765642        0.0000000000000000        0.0000000000000000     
   7568.1171244725429        0.0000000000000000        0.0000000000000000     
   7577.5701853325318        0.0000000000000000        0.0000000000000000     
   7583.3955042413636        0.0000000000000000        0.0000000000000000     
   7585.5448388580899        0.0000000000000000        0.0000000000000000     
   7584.0003233148636       -0.0000000000000000        0.0000000000000000     
   7578.7747996651697       -0.0000000000000000        0.0000000000000000     
   7569.9115795204671       -0.0000000000000000        0.0000000000000000     
   7557.4836445545234       -0.0000000000000000        0.0000000000000000     
   7541.5923147777403       -0.0000000000000000        0.0000000000000000     
   7522.3654319997195       -0.0000000000000000        0.0000000000000000     
   7499.9551216663413       -0.0000000000000000        0.0000000000000000     
   7474.5352084711058       -0.0000000000000000        0.0000000000000000     
   7446.2983692849702       -0.0000000000000000        0.0000000000000000     
   7415.4531108274841       -0.0000000000000000        0.0000000000000000     
   7382.2206592265084       -0.0000000000000000        0.0000000000000000     
   7346.8318445680525       -0.0000000000000000        0.0000000000000000     
   7309.5240563170000       -0.0000000000000000        0.0000000000000000     
   7270.5383358287609       -0.0000000000000000        0.0000000000000000     
   7230.1166608700414       -0.0000000000000000        0.0000000000000000     
   7188.4994649163364       -0.0000000000000000        0.0000000000000000     
   7145.9234217225967       -0.0000000000000000        0.0000000000000000     
   7102.6195138922276       -0.0000000000000000        0.0000000000000000     
   7058.8113933859022       -0.0000000000000000        0.0000000000000000     
   7014.7140324606062       -0.0000000000000000        0.0000000000000000     
   6970.5326556172131       -0.0000000000000000        0.0000000000000000     
   6926.4619368438071       -0.0000000000000000        0.0000000000000000     
   6882.6854417496497       -0.0000000000000000        0.0000000000000000     
   6839.3752909897039       -0.0000000000000000        0.0000000000000000     
   6796.6920195240082       -0.0000000000000000        0.0000000000000000     
   6754.7846055489199       -0.0000000000000000        0.0000000000000000     
   6713.7906431727370       -0.0000000000000000        0.0000000000000000     
   6673.8366338818787       -0.0000000000000000        0.0000000000000000     
   6635.0383733628132       -0.0000000000000000        0.0000000000000000     
   6597.5014121369240       -0.0000000000000000        0.0000000000000000     
   6561.3215705806924       -0.0000000000000000        0.0000000000000000     
   6526.5854911192309       -0.0000000000000000        0.0000000000000000     
   6493.3712125982938       -0.0000000000000000        0.0000000000000000     
   6461.7487539840531       -0.0000000000000000        0.0000000000000000     
   6431.7806965568225       -0.0000000000000000        0.0000000000000000     
   6403.5227556186737       -0.0000000000000000        0.0000000000000000     
   6377.0243344041683       -0.0000000000000000        0.0000000000000000     
   6352.3290543586709       -0.0000000000000000        0.0000000000000000     
   6329.4752572296156       -0.0000000000000000        0.0000000000000000     
   6308.4964755088185       -0.0000000000000000        0.0000000000000000     
   6289.4218686793720       -0.0000000000000000        0.0000000000000000     
   6272.2766234727496       -0.0000000000000000        0.0000000000000000     
   6257.0823169460255       -0.0000000000000000        0.0000000000000000     
   6243.8572416618017       -0.0000000000000000        0.0000000000000000     
   6232.6166926109463       -0.0000000000000000        0.0000000000000000     
   6223.3732157761460       -0.0000000000000000        0.0000000000000000     
   6216.1368184075718       -0.0000000000000000        0.0000000000000000     
   6210.9151411846960       -0.0000000000000000        0.0000000000000000     
   6207.7135924830518       -0.0000000000000000        0.0000000000000000     
   6206.5354449639308       -0.0000000000000000        0.0000000000000000     
   6207.3818946690863       -0.0000000000000000       -0.0000000000000000     
   6210.2520827423778       -0.0000000000000000       -0.0000000000000000     
   6215.1430798250358       -0.0000000000000000       -0.0000000000000000     
   6222.0498330909231       -0.0000000000000000       -0.0000000000000000     
   6230.9650758114167       -0.0000000000000000       -0.0000000000000000     
   6241.8791992762754       -0.0000000000000000       -0.0000000000000000     
   6254.7800868563108       -0.0000000000000000       -0.0000000000000000     
   6269.6529099863192       -0.0000000000000000       -0.0000000000000000     
   6286.4798858833074       -0.0000000000000000       -0.0000000000000000     
   6305.2399969073913       -0.0000000000000000       -0.0000000000000000     
   6325.9086716335269       -0.0000000000000000       -0.0000000000000000     
   6348.4574279453636       -0.0000000000000000       -0.0000000000000000     
   6372.8534788025217       -0.0000000000000000       -0.0000000000000000     
   6399.0593017853762       -0.0000000000000000       -0.0000000000000000     
   6427.0321741030639       -0.0000000000000000       -0.0000000000000000     
   6456.7236754770929       -0.0000000000000000       -0.0000000000000000     
   6488.0791622006727       -0.0000000000000000       -0.0000000000000000     
   6521.0372167367823       -0.0000000000000000       -0.0000000000000000     
   6555.5290784673034       -0.0000000000000000       -0.0000000000000000     
   6591.4780626489692       -0.0000000000000000       -0.0000000000000000     
   6628.7989762696352       -0.0000000000000000       -0.0000000000000000     
   6667.3975413230228       -0.0000000000000000       -0.0000000000000000     
   6707.1698380123689       -0.0000000000000000       -0.0000000000000000     
   6748.0017825197638       -0.0000000000000000       -0.0000000000000000     
   6789.7686561878700       -0.0000000000000000       -0.0000000000000000     
   6832.3347051823976       -0.0000000000000000       -0.0000000000000000     
   6875.5528318434317       -0.0000000000000000       -0.0000000000000000     
   6919.2644008716034       -0.0000000000000000       -0.0000000000000000     
   6963.2991850865683       -0.0000000000000000       -0.0000000000000000     
   7007.4754765710040       -0.0000000000000000       -0.0000000000000000     
   7051.6003893835859       -0.0000000000000000       -0.0000000000000000     
   7095.4703794857951       -0.0000000000000000       -0.0000000000000000     
   7138.8720058736899       -0.0000000000000000       -0.0000000000000000     
   7181.5829539421065       -0.0000000000000000       -0.0000000000000000     
   7223.3733376706359       -0.0000000000000000       -0.0000000000000000     
   7264.0072911953857       -0.0000000000000000       -0.0000000000000000     
   7303.2448526815479       -0.0000000000000000       -0.0000000000000000     
   7340.8441342022315       -0.0000000000000000       -0.0000000000000000     
   7376.5637607438075       -0.0000000000000000       -0.0000000000000000     
   7410.1655498189812       -0.0000000000000000       -0.0000000000000000     
   7441.4173909402689       -0.0000000000000000       -0.0000000000000000     
   7470.0962719887966       -0.0000000000000000       -0.0000000000000000     
   7495.9913880192216       -0.0000000000000000       -0.0000000000000000     
   7518.9072580566153       -0.0000000000000000       -0.0000000000000000     
   7538.6667677675987       -0.0000000000000000       -0.0000000000000000     
   7555.1140512766606       -0.0000000000000000       -0.0000000000000000     
   7568.1171244726174       -0.0000000000000000       -0.0000000000000000     
   7577.5701853325827       -0.0000000000000000       -0.0000000000000000     
   7583.3955042413891       -0.0000000000000000       -0.0000000000000000     
   7585.5448388580917       -0.0000000000000000       -0.0000000000000000     
   7584.0003233148427        0.0000000000000000       -0.0000000000000000     
   7578.7747996651233        0.0000000000000000       -0.0000000000000000     
   7569.9115795203970        0.0000000000000000       -0.0000000000000000     
   7557.4836445544297        0.0000000000000000       -0.0000000000000000     
   7541.5923147776248        0.0000000000000000       -0.0000000000000000     
   7522.3654319995831        0.0000000000000000       -0.0000000000000000     
   7499.9551216661839        0.0000000000000000       -0.0000000000000000     
   7474.5352084709275        0.0000000000000000       -0.0000000000000000     
   7446.2983692847756        0.0000000000000000       -0.0000000000000000     
   7415.4531108272731        0.0000000000000000       -0.0000000000000000     
   7382.2206592262828        0.0000000000000000       -0.0000000000000000     
   7346.8318445678133        0.0000000000000000       -0.0000000000000000     
   7309.5240563167481        0.0000000000000000       -0.0000000000000000     
   7270.5383358284989        0.0000000000000000       -0.0000000000000000     
   7230.1166608697713        0.0000000000000000       -0.0000000000000000     
   7188.4994649160590        0.0000000000000000       -0.0000000000000000     
   7145.9234217223129        0.0000000000000000       -0.0000000000000000     
   7102.6195138919393        0.0000000000000000       -0.0000000000000000     
   7058.8113933856139        0.0000000000000000       -0.0000000000000000     
   7014.7140324603160        0.0000000000000000       -0.0000000000000000     
   6970.5326556169230        0.0000000000000000       -0.0000000000000000     
   6926.4619368435178        0.0000000000000000       -0.0000000000000000     
   6882.6854417493605        0.0000000000000000       -0.0000000000000000     
   6839.3752909894183        0.0000000000000000       -0.0000000000000000     
   6796.6920195237299        0.0000000000000000       -0.0000000000000000     
   6754.7846055486461        0.0000000000000000       -0.0000000000000000     
   6713.7906431724705        0.0000000000000000       -0.0000000000000000     
   6673.8366338816195        0.0000000000000000       -0.0000000000000000     
   6635.0383733625613        0.0000000000000000       -0.0000000000000000     
   6597.5014121366821        0.0000000000000000       -0.0000000000000000     
   6561.3215705804596        0.0000000000000000       -0.0000000000000000     
   6526.5854911190063        0.0000000000000000       -0.0000000000000000     
   6493.3712125980783        0.0000000000000000       -0.0000000000000000     
   6461.7487539838485        0.0000000000000000       -0.0000000000000000     
   6431.7806965566297        0.0000000000000000       -0.0000000000000000     
   6403.5227556184927        0.0000000000000000       -0.0000000000000000     
   6377.0243344039991        0.0000000000000000       -0.0000000000000000     
   6352.3290543585144        0.0000000000000000       -0.0000000000000000     
   6329.4752572294710        0.0000000000000000       -0.0000000000000000     
   6308.4964755086885        0.0000000000000000       -0.0000000000000000     
   6289.4218686792528        0.0000000000000000       -0.0000000000000000     
   6272.2766234726432        0.0000000000000000       -0.0000000000000000     
   6257.0823169459318        0.0000000000000000       -0.0000000000000000     
   6243.8572416617208        0.0000000000000000       -0.0000000000000000     
   6232.6166926108799        0.0000000000000000       -0.0000000000000000     
   6223.3732157760905        0.0000000000000000       -0.0000000000000000     
   6216.1368184075309        0.0000000000000000       -0.0000000000000000     
   6210.9151411846678        0.0000000000000000       -0.0000000000000000     
   6207.7135924830382        0.0000000000000000       -0.0000000000000000     
   6206.5354449639271        0.0000000000000000       -0.0000000000000000     
   6207.3818946690981        0.0000000000000000        0.0000000000000000     
   10910.155383658039        342.86544566115987        0.0000000000000000     
   11076.984810721102        347.93650120166990        10.934345052957166     
   11230.336718950559        352.23112758589787        22.160504188446080     
   11368.673196509159        355.68934956585514        33.622542788032014     
   11490.755427879370        358.26406478669685        45.259276624082659     
   11595.703370678324        359.92317148022613        57.006230074731533     
   11683.037846474896        360.65094428529187        68.797847062183976     
   11752.701129673411        360.44852469292329        80.569790990080833     
   11805.054327027239        359.33348327784933        92.261157324684334     
   11840.852291208526        357.33850779792334        103.81643345981128     
   11861.199084769720        354.50935795738150        115.18707289924315     
   11867.488737297166        350.90229036277213        126.33259810264664     
   11861.336987502609        346.58118800456310        137.22119965340534     
   11844.509819454111        341.61462659987757        147.82984968670328     
   11818.853997933495        336.07308071347052        158.14398766073313     
   11786.233702029422        330.02642507033437        168.15686257901442     
   11748.476008798816        323.54183137074267        177.86862697504850     
   11707.326628141314        316.68210745994861        187.28527626953880     
   11664.416111420025        309.50448043819074        196.41751596246729     
   11621.235848593338        302.05979165762449        205.27962243238565     
   11579.122560457099        294.39205024107918        213.88834440685349     
   11539.249661444568        286.53828153794672        222.26187412037081     
   11502.623762254389        278.52860551852780        230.41890149633389     
   11470.084638046650        270.38648490477584        238.37775221580202     
   11442.307148046193        262.12909144411083        246.15560145919378     
   11419.803808162418        253.76774921884979        253.76774921887608     
   11402.926955788980        245.30842485525011        261.22693999131133     
   11391.869685334284        236.75224506342124        268.54270896083386     
   11386.664966422952        228.09603160969777        275.72073816862360     
   11387.182585919627        219.33285237371041        282.76220945548334     
   11393.123788882451        210.45259449519634        289.66314617947728     
   11404.013745808616        201.44257172410229        296.41374299591666     
   11419.192259703936        192.28818283948041        302.99769260661628     
   11437.803461216776        182.97364113863347        309.39153060822281     
   11458.785632923826        173.48279604969579        315.56403453388765     
   11480.862753921290        163.80006617948334        321.47573068635035     
   11502.539844577710        153.91149764314275        327.07858158437136     
   11522.104674031109        143.80595128035233        332.31594602582084     
   11537.638791106867        133.47640639086825        337.12291988691237     
   11547.041035641894        122.92134643831416        341.42717435960492     
   11548.066530260425        112.14616429244589        345.15040360030918     
   11538.383475789175        101.16449313678302        348.21046933421565     
   11515.648734262129        89.999338430378842        350.52428030025868     
   11477.601123701466        78.683862832936143        352.01136712366053     
   11422.168665815705        67.261668010939175        352.59801168540531     
   11347.583032467881        55.786432996924752        352.22167583286392     
   11252.491664541963        44.320813905727668        350.83536744122256     
   11136.056175221376        32.934584253496560        348.41150846957265     
   10998.025371921520        21.702090811527981        344.94485561001545     
   10838.772967203182        10.699200693943959        340.45408637537236     
   10659.293775206217       -3.4640988558945654E-011   334.98180201388948     
   10461.157339136382       -10.326447670945424        328.59289285802708     
   10246.423497383557       -20.218976199313129        321.37142389647647     
   10017.529199547711       -29.626571044890586        313.41638409820217     
   9777.1589531785321       -38.509839012521859        304.83676470327475     
   9528.1121238421019       -46.841639057740302        295.74646955045159     
   9273.1790164605154       -54.606923313831871        286.25951681069557     
   9015.0348067767191       -61.801917885648123        276.48588697228644     
   8756.1567809057651       -68.432820039931855        266.52823689309270     
   8498.7667689425962       -74.514201601331351        256.47956419414737     
   8244.7977052158694       -80.067293999808427        246.42179260927711     
   7995.8812068680063       -85.118298348106279        236.42516888518600     
   7753.3519675696753       -89.696824181477652        226.54831734137287     
   7518.2644701189856       -93.834521095788233        216.83878427964177     
   7291.4178026624568       -97.563933628029545        207.33391275822120     
   7073.3849828745879       -100.91758373407644        198.06191002662831     
   6864.5439555969006       -103.92726744112868        189.04299768372536     
   6665.1081918431410       -106.62354171236672        180.29056296829637     
   6475.1554962685595       -109.03537270097969        171.81225519439963     
   6294.6541867444757       -111.18991573980875        163.61099258086585     
   6123.4862353625822       -113.11239915128260        155.68586117289692     
   5961.4672654177166       -114.82608711954033        148.03289952074186     
   5808.3635030430096       -116.35230061636230        140.64577093757541     
   5663.9059070657868       -117.71047917203809        133.51633029480226     
   5527.8017669350784       -118.91826981061172        126.63509518682355     
   5399.7440838051361       -119.99163256429077        119.99163256425349     
   5279.4190479970730       -120.94495458818173        113.57487212152493     
   5166.5119075990733       -121.79116702250744        107.37335723261856     
   5060.7114954347398       -122.54186043889226        101.37544334833660     
   4961.7136501838095       -123.20739601965491        95.569452702189693     
   4869.2237354331683       -123.79701061738518        89.943793053430227     
   4782.9584299112139       -124.31891458610556        84.487047108721754     
   4702.6469342423206       -124.78038181800767        79.188038256604941     
   4628.0317147626847       -125.18783180608935        74.035877345366501     
   4558.8688833818696       -125.54690382003304        69.019994443433021     
   4494.9282940358144       -125.86252346013336        64.130158840499689     
   4435.9934207041424       -126.13896196547816        59.356489970117373     
   4381.8610689442803       -126.37988871615994        54.689461450384862     
   4332.3409620967050       -126.58841739902138        50.119900037622656     
   4287.2552344202468       -126.76714631292677        45.638980957358299     
   4246.4378561286840       -126.91819328074513        41.238220807182842     
   4209.7340093582325       -127.04322561706368        36.909469007583247     
   4176.9994292715646       -127.14348557748545        32.644898601315909     
   4148.0997206039901       -127.21981169042569        28.436997061972750     
   4122.9096568187751       -127.27265634796760        24.278557661806786     
   4101.3124665271716       -127.30210001030275        20.162671862244288     
   4083.1991098359217       -127.30786235985971        16.082723123198075     
   4068.4675457242242       -127.28931072737804        12.032382475338991     
   4057.0219903563907       -127.24546610367084        8.0056061594221202     
   4048.7721653553108       -127.17500704821667        3.9966356055362455     
   4043.6325344600332       -127.07627180949964       -2.6282309375622868E-011
   4041.5215266457540       -126.94725898254656       -3.9894783342862481     
   4042.3607436848556       -126.78562704664128       -7.9766755382116186     
   4046.0741502720425       -126.58869315087320       -11.966154615398878     
   4052.5872452320814       -126.35343154697000       -15.962150471889196     
   4061.8262129887898       -126.07647210751932       -19.968551472869567     
   4073.7170554178283       -125.75409941266062       -23.988877433801495     
   4088.1847054554155       -125.38225293868744       -28.026254017134711     
   4105.1521254123791       -124.95652893630387       -32.083383573899695     
   4124.5393948673918       -124.47218464247449       -36.162512554763289     
   4146.2627952963576       -123.92414552508359       -40.265395719963820     
   4170.2339012365210       -123.30701631030516       -44.393257503881649     
   4196.3586907646422       -122.61509658403031       -48.546751039088271     
   4224.5366913444059       -121.84240178522512       -52.725915516737480     
   4254.6601805914497       -120.98269041399207       -56.930132753819379     
   4286.6134650979247       -120.02949825276984       -61.158084049869274     
   4320.2722639869526       -118.97618033722459       -65.407708640552372     
   4355.5032271149448       -117.81596130543612       -69.676165284617284     
   4392.1636205356745       -116.54199459176749       -73.959798742261285     
   4430.1012136652034       -115.14743070838601       -78.254113101817836     
   4469.1544031813883       -113.62549456807712       -82.553754069393278     
   4509.1526076764549       -111.96957144560187       -86.852502431404105     
   4549.9169640839073       -110.17330075506126       -91.143280909897229     
   4591.2613515971116       -108.23067634736118       -95.418176531925440     
   4632.9937609545996       -106.13615152188920       -99.668480406021601     
   4674.9180165012858       -103.88474642462637       -103.88474642468013     
   4716.8358454585641       -101.47215500337364       -108.05686988332157     
   4758.5492737061222       -98.894848248214799       -112.17418632606010     
   4799.8633107216729       -96.150170104483138       -116.22559011294459     
   4840.5888690417150       -93.236422249685532       -120.19967128379332     
   4880.5458468367124       -90.152933914536106       -124.08486831747020     
   4919.5662872448556       -86.900113131986274       -127.86963341349255     
   4957.4975163453955       -83.479476233435278       -131.54260602621889     
   4994.2051543576299       -79.893653076341053       -135.09278963550176     
   5029.5758928714185       -76.146366359461425       -138.50972621294142     
   5063.5199353095904       -72.242384416730644       -141.78366259911513     
   5095.9730085494330       -68.187448015167050       -144.90570308386916     
   5126.8978702788390       -63.988172839117674       -147.86794289237778     
   5156.2852582567839       -59.651930439047803       -150.66357800812611     
   5184.1542527253150       -55.186711376670679       -153.28698776500639     
   5210.5520499750819       -50.600975039351205       -155.73378784378045     
   5235.5531715419829       -45.903491074005771       -158.00085262483395     
   5259.2581578112295       -41.103177576867239       -160.08630718261190     
   5281.7918152890279       -36.208941069378746       -161.98949046270212     
   5303.3011022495411       -31.229522916145484       -163.71089227728021     
   5323.9527471697384       -26.173356243227904       -165.25206762513056     
   5343.9306981621776       -21.048436653750105       -166.61553244940987     
   5363.4334998435161       -15.862209179698594       -167.80464527601106     
   5382.6716874809172       -10.621473020802572       -168.82347923787790     
   5401.8652778676706       -5.3323047640222576       -169.67668881562076     
   5421.2414233638510        5.2930144521510581E-011  -170.36937525587925     
   5441.0322810795624        5.3709674088030841       -170.90695411731852     
   5461.4731343612657        10.776969675848321       -171.29502779288725     
   5482.8007894757875        16.215234702991996       -171.53926521580013     
   5505.2522573627602        21.683842839211195       -171.64529031864009     
   5529.0637190047410        27.181712776567348       -171.61858021415816     
   5554.4697635867597        32.708578567404899       -171.46437352729953     
   5581.7028812352773        38.264959650427095       -171.18758884590673     
   5610.9931866423267        43.852125606568684       -170.79275287943824     
   5642.5683460864493        49.472057149085344       -170.28393762121271     
   5676.6536779809294        55.127404603601718       -169.66470559551314     
   5713.4723957991364        60.821444867372264       -168.93806212844817     
   5753.2459617244376        66.558037563670737       -168.10641350107136     
   5796.1945193361171        72.341580834491424       -167.17152981466776     
   5842.5373737826394        78.176966946965962       -166.13451141149156     
   5892.4934879471857        84.069537627653190       -164.99575774085329     
   5946.2819628449352        90.025038783430972       -163.75493763314384     
   6004.1224697031139        96.049574015652951       -162.41096003782846     
   6066.2355996843298        102.14955608168987       -160.96194439234688     
   6132.8430948655041        108.33165520033876       -159.40518991599447     
   6204.1679207419047        114.60274282974493       -157.73714326715177     
   6280.4341360734625        120.96982926349555       -155.95336416675033     
   6361.8665102353971        127.43999308797748       -154.04848878088910     
   6448.6898313174115        134.02030021887214       -152.01619087856619     
   6541.1278400208676        140.71770988574451       -149.84914104641265     
   6639.4017149879219        147.53896456335607       -147.53896456324921     
   6743.7280247209992        154.49046046354695       -145.07619892769060     