 VARIABLES = "x_1", "x_2", "x_3"
 ZONE F = POINT , I =         201  , J =         101
   2920.5619580537877        0.0000000000000000        0.0000000000000000     
   2920.5619580537877        0.0000000000000000        0.0000000000000000     
   2920.5619580537877        0.0000000000000000        0.0000000000000000     
   2920.5619580537877        0.0000000000000000        0.0000000000000000     
   2920.5619580537877        0.0000000000000000        0.0000000000000000     
   2920.5619580537877        0.0000000000000000        0.0000000000000000     
   2920.5619580537877        0.0000000000000000        0.0000000000000000     
   2920.5619580537877        0.0000000000000000        0.0000000000000000     
   2920.5619580537877        0.0000000000000000        0.0000000000000000     
   2920.5619580537877        0.0000000000000000        0.0000000000000000     
   2920.5619580537877        0.0000000000000000        0.0000000000000000     
   2920.5619580537877        0.0000000000000000        0.0000000000000000     
   2920.5619580537877        0.0000000000000000        0.0000000000000000     
   2920.5619580537877        0.0000000000000000        0.0000000000000000     
   2920.5619580537877        0.0000000000000000        0.0000000000000000     
   2920.5619580537877        0.0000000000000000        0.0000000000000000     
   2920.5619580537877        0.0000000000000000        0.0000000000000000     
   2920.5619580537877        0.0000000000000000        0.0000000000000000     
   2920.5619580537877        0.0000000000000000        0.0000000000000000     
   2920.5619580537877        0.0000000000000000        0.0000000000000000     
   2920.5619580537877        0.0000000000000000        0.0000000000000000     
   2920.5619580537877        0.0000000000000000        0.0000000000000000     
   2920.5619580537877        0.0000000000000000        0.0000000000000000     
   2920.5619580537877        0.0000000000000000        0.0000000000000000     
   2920.5619580537877        0.0000000000000000        0.0000000000000000     
   2920.5619580537877        0.0000000000000000        0.0000000000000000     
   2920.5619580537877        0.0000000000000000        0.0000000000000000     
   2920.5619580537877        0.0000000000000000        0.0000000000000000     
   2920.5619580537877        0.0000000000000000        0.0000000000000000     
   2920.5619580537877        0.0000000000000000        0.0000000000000000     
   2920.5619580537877        0.0000000000000000        0.0000000000000000     
   2920.5619580537877        0.0000000000000000        0.0000000000000000     
   2920.5619580537877        0.0000000000000000        0.0000000000000000     
   2920.5619580537877        0.0000000000000000        0.0000000000000000     
   2920.5619580537877        0.0000000000000000        0.0000000000000000     
   2920.5619580537877        0.0000000000000000        0.0000000000000000     
   2920.5619580537877        0.0000000000000000        0.0000000000000000     
   2920.5619580537877        0.0000000000000000        0.0000000000000000     
   2920.5619580537877        0.0000000000000000        0.0000000000000000     
   2920.5619580537877        0.0000000000000000        0.0000000000000000     
   2920.5619580537877        0.0000000000000000        0.0000000000000000     
   2920.5619580537877        0.0000000000000000        0.0000000000000000     
   2920.5619580537877        0.0000000000000000        0.0000000000000000     
   2920.5619580537877        0.0000000000000000        0.0000000000000000     
   2920.5619580537877        0.0000000000000000        0.0000000000000000     
   2920.5619580537877        0.0000000000000000        0.0000000000000000     
   2920.5619580537877        0.0000000000000000        0.0000000000000000     
   2920.5619580537877        0.0000000000000000        0.0000000000000000     
   2920.5619580537877        0.0000000000000000        0.0000000000000000     
   2920.5619580537877        0.0000000000000000        0.0000000000000000     
   2920.5619580537877       -0.0000000000000000        0.0000000000000000     
   2920.5619580537877       -0.0000000000000000        0.0000000000000000     
   2920.5619580537877       -0.0000000000000000        0.0000000000000000     
   2920.5619580537877       -0.0000000000000000        0.0000000000000000     
   2920.5619580537877       -0.0000000000000000        0.0000000000000000     
   2920.5619580537877       -0.0000000000000000        0.0000000000000000     
   2920.5619580537877       -0.0000000000000000        0.0000000000000000     
   2920.5619580537877       -0.0000000000000000        0.0000000000000000     
   2920.5619580537877       -0.0000000000000000        0.0000000000000000     
   2920.5619580537877       -0.0000000000000000        0.0000000000000000     
   2920.5619580537877       -0.0000000000000000        0.0000000000000000     
   2920.5619580537877       -0.0000000000000000        0.0000000000000000     
   2920.5619580537877       -0.0000000000000000        0.0000000000000000     
   2920.5619580537877       -0.0000000000000000        0.0000000000000000     
   2920.5619580537877       -0.0000000000000000        0.0000000000000000     
   2920.5619580537877       -0.0000000000000000        0.0000000000000000     
   2920.5619580537877       -0.0000000000000000        0.0000000000000000     
   2920.5619580537877       -0.0000000000000000        0.0000000000000000     
   2920.5619580537877       -0.0000000000000000        0.0000000000000000     
   2920.5619580537877       -0.0000000000000000        0.0000000000000000     
   2920.5619580537877       -0.0000000000000000        0.0000000000000000     
   2920.5619580537877       -0.0000000000000000        0.0000000000000000     
   2920.5619580537877       -0.0000000000000000        0.0000000000000000     
   2920.5619580537877       -0.0000000000000000        0.0000000000000000     
   2920.5619580537877       -0.0000000000000000        0.0000000000000000     
   2920.5619580537877       -0.0000000000000000        0.0000000000000000     
   2920.5619580537877       -0.0000000000000000        0.0000000000000000     
   2920.5619580537877       -0.0000000000000000        0.0000000000000000     
   2920.5619580537877       -0.0000000000000000        0.0000000000000000     
   2920.5619580537877       -0.0000000000000000        0.0000000000000000     
   2920.5619580537877       -0.0000000000000000        0.0000000000000000     
   2920.5619580537877       -0.0000000000000000        0.0000000000000000     
   2920.5619580537877       -0.0000000000000000        0.0000000000000000     
   2920.5619580537877       -0.0000000000000000        0.0000000000000000     
   2920.5619580537877       -0.0000000000000000        0.0000000000000000     
   2920.5619580537877       -0.0000000000000000        0.0000000000000000     
   2920.5619580537877       -0.0000000000000000        0.0000000000000000     
   2920.5619580537877       -0.0000000000000000        0.0000000000000000     
   2920.5619580537877       -0.0000000000000000        0.0000000000000000     
   2920.5619580537877       -0.0000000000000000        0.0000000000000000     
   2920.5619580537877       -0.0000000000000000        0.0000000000000000     
   2920.5619580537877       -0.0000000000000000        0.0000000000000000     
   2920.5619580537877       -0.0000000000000000        0.0000000000000000     
   2920.5619580537877       -0.0000000000000000        0.0000000000000000     
   2920.5619580537877       -0.0000000000000000        0.0000000000000000     
   2920.5619580537877       -0.0000000000000000        0.0000000000000000     
   2920.5619580537877       -0.0000000000000000        0.0000000000000000     
   2920.5619580537877       -0.0000000000000000        0.0000000000000000     
   2920.5619580537877       -0.0000000000000000        0.0000000000000000     
   2920.5619580537877       -0.0000000000000000        0.0000000000000000     
   2920.5619580537877       -0.0000000000000000       -0.0000000000000000     
   2920.5619580537877       -0.0000000000000000       -0.0000000000000000     
   2920.5619580537877       -0.0000000000000000       -0.0000000000000000     
   2920.5619580537877       -0.0000000000000000       -0.0000000000000000     
   2920.5619580537877       -0.0000000000000000       -0.0000000000000000     
   2920.5619580537877       -0.0000000000000000       -0.0000000000000000     
   2920.5619580537877       -0.0000000000000000       -0.0000000000000000     
   2920.5619580537877       -0.0000000000000000       -0.0000000000000000     
   2920.5619580537877       -0.0000000000000000       -0.0000000000000000     
   2920.5619580537877       -0.0000000000000000       -0.0000000000000000     
   2920.5619580537877       -0.0000000000000000       -0.0000000000000000     
   2920.5619580537877       -0.0000000000000000       -0.0000000000000000     
   2920.5619580537877       -0.0000000000000000       -0.0000000000000000     
   2920.5619580537877       -0.0000000000000000       -0.0000000000000000     
   2920.5619580537877       -0.0000000000000000       -0.0000000000000000     
   2920.5619580537877       -0.0000000000000000       -0.0000000000000000     
   2920.5619580537877       -0.0000000000000000       -0.0000000000000000     
   2920.5619580537877       -0.0000000000000000       -0.0000000000000000     
   2920.5619580537877       -0.0000000000000000       -0.0000000000000000     
   2920.5619580537877       -0.0000000000000000       -0.0000000000000000     
   2920.5619580537877       -0.0000000000000000       -0.0000000000000000     
   2920.5619580537877       -0.0000000000000000       -0.0000000000000000     
   2920.5619580537877       -0.0000000000000000       -0.0000000000000000     
   2920.5619580537877       -0.0000000000000000       -0.0000000000000000     
   2920.5619580537877       -0.0000000000000000       -0.0000000000000000     
   2920.5619580537877       -0.0000000000000000       -0.0000000000000000     
   2920.5619580537877       -0.0000000000000000       -0.0000000000000000     
   2920.5619580537877       -0.0000000000000000       -0.0000000000000000     
   2920.5619580537877       -0.0000000000000000       -0.0000000000000000     
   2920.5619580537877       -0.0000000000000000       -0.0000000000000000     
   2920.5619580537877       -0.0000000000000000       -0.0000000000000000     
   2920.5619580537877       -0.0000000000000000       -0.0000000000000000     
   2920.5619580537877       -0.0000000000000000       -0.0000000000000000     
   2920.5619580537877       -0.0000000000000000       -0.0000000000000000     
   2920.5619580537877       -0.0000000000000000       -0.0000000000000000     
   2920.5619580537877       -0.0000000000000000       -0.0000000000000000     
   2920.5619580537877       -0.0000000000000000       -0.0000000000000000     
   2920.5619580537877       -0.0000000000000000       -0.0000000000000000     
   2920.5619580537877       -0.0000000000000000       -0.0000000000000000     
   2920.5619580537877       -0.0000000000000000       -0.0000000000000000     
   2920.5619580537877       -0.0000000000000000       -0.0000000000000000     
   2920.5619580537877       -0.0000000000000000       -0.0000000000000000     
   2920.5619580537877       -0.0000000000000000       -0.0000000000000000     
   2920.5619580537877       -0.0000000000000000       -0.0000000000000000     
   2920.5619580537877       -0.0000000000000000       -0.0000000000000000     
   2920.5619580537877       -0.0000000000000000       -0.0000000000000000     
   2920.5619580537877       -0.0000000000000000       -0.0000000000000000     
   2920.5619580537877       -0.0000000000000000       -0.0000000000000000     
   2920.5619580537877       -0.0000000000000000       -0.0000000000000000     
   2920.5619580537877       -0.0000000000000000       -0.0000000000000000     
   2920.5619580537877        0.0000000000000000       -0.0000000000000000     
   2920.5619580537877        0.0000000000000000       -0.0000000000000000     
   2920.5619580537877        0.0000000000000000       -0.0000000000000000     
   2920.5619580537877        0.0000000000000000       -0.0000000000000000     
   2920.5619580537877        0.0000000000000000       -0.0000000000000000     
   2920.5619580537877        0.0000000000000000       -0.0000000000000000     
   2920.5619580537877        0.0000000000000000       -0.0000000000000000     
   2920.5619580537877        0.0000000000000000       -0.0000000000000000     
   2920.5619580537877        0.0000000000000000       -0.0000000000000000     
   2920.5619580537877        0.0000000000000000       -0.0000000000000000     
   2920.5619580537877        0.0000000000000000       -0.0000000000000000     
   2920.5619580537877        0.0000000000000000       -0.0000000000000000     
   2920.5619580537877        0.0000000000000000       -0.0000000000000000     
   2920.5619580537877        0.0000000000000000       -0.0000000000000000     
   2920.5619580537877        0.0000000000000000       -0.0000000000000000     
   2920.5619580537877        0.0000000000000000       -0.0000000000000000     
   2920.5619580537877        0.0000000000000000       -0.0000000000000000     
   2920.5619580537877        0.0000000000000000       -0.0000000000000000     
   2920.5619580537877        0.0000000000000000       -0.0000000000000000     
   2920.5619580537877        0.0000000000000000       -0.0000000000000000     
   2920.5619580537877        0.0000000000000000       -0.0000000000000000     
   2920.5619580537877        0.0000000000000000       -0.0000000000000000     
   2920.5619580537877        0.0000000000000000       -0.0000000000000000     
   2920.5619580537877        0.0000000000000000       -0.0000000000000000     
   2920.5619580537877        0.0000000000000000       -0.0000000000000000     
   2920.5619580537877        0.0000000000000000       -0.0000000000000000     
   2920.5619580537877        0.0000000000000000       -0.0000000000000000     
   2920.5619580537877        0.0000000000000000       -0.0000000000000000     
   2920.5619580537877        0.0000000000000000       -0.0000000000000000     
   2920.5619580537877        0.0000000000000000       -0.0000000000000000     
   2920.5619580537877        0.0000000000000000       -0.0000000000000000     
   2920.5619580537877        0.0000000000000000       -0.0000000000000000     
   2920.5619580537877        0.0000000000000000       -0.0000000000000000     
   2920.5619580537877        0.0000000000000000       -0.0000000000000000     
   2920.5619580537877        0.0000000000000000       -0.0000000000000000     
   2920.5619580537877        0.0000000000000000       -0.0000000000000000     
   2920.5619580537877        0.0000000000000000       -0.0000000000000000     
   2920.5619580537877        0.0000000000000000       -0.0000000000000000     
   2920.5619580537877        0.0000000000000000       -0.0000000000000000     
   2920.5619580537877        0.0000000000000000       -0.0000000000000000     
   2920.5619580537877        0.0000000000000000       -0.0000000000000000     
   2920.5619580537877        0.0000000000000000       -0.0000000000000000     
   2920.5619580537877        0.0000000000000000       -0.0000000000000000     
   2920.5619580537877        0.0000000000000000       -0.0000000000000000     
   2920.5619580537877        0.0000000000000000       -0.0000000000000000     
   2920.5619580537877        0.0000000000000000       -0.0000000000000000     
   2920.5619580537877        0.0000000000000000       -0.0000000000000000     
   2920.5619580537877        0.0000000000000000       -0.0000000000000000     
   2920.5619580537877        0.0000000000000000       -0.0000000000000000     
   2920.5619580537877        0.0000000000000000       -0.0000000000000000     
   2920.5619580537877        0.0000000000000000        0.0000000000000000     
   2892.7649290459194        90.908800261078852        0.0000000000000000     
   2892.3309897315112        90.850311892666824        2.8550860716605651     
   2891.9251843708594        90.703074545051649        5.7065537538852906     
   2891.5478816236000        90.467266274223746        8.5516744736215458     
   2891.1994218488762        90.143147113495445        11.387727746024728     
   2890.8801169983035        89.731058722166125        14.212003515439335     
   2890.5902505326962        89.231423975145759        17.021804481750618     
   2890.3300773608930        88.644746494056989        19.814448411127298     
   2890.0998237991380        87.971610120320506        22.587270430183722     
   2889.8996875494458        87.212678330708670        25.337625302594269     
   2889.7298376955318        86.368693595839787        28.062889687195199     
   2889.5904147149404        85.440476682071534        30.760464376609388     
   2889.4815305061043        84.428925897239921        33.427776515426999     
   2889.4032684291865        83.335016280681671        36.062281796971980     
   2889.3556833596626        82.159798737969041        38.661466637678565     
   2889.3388017537573        80.904399120781648        41.222850328096094     
   2889.3526217249382        79.570017252333088        43.743987159532530     
   2889.3971131308413        78.157925898770046        46.222468525338343     
   2889.4722176701284        76.669469686957797        48.655924995823518     
   2889.5778489889390        75.106063969068714        51.042028365789804     
   2889.7138927967057        73.469193634389640        53.378493673649466     
   2889.8802069913004        71.760411868768784        55.663081191090406     
   2890.0766217935688        69.981338862125426        57.893598382235112     
   2890.3029398914796        68.133660464451950        60.067901831227360     
   2890.5589365942496        66.219126790743871        62.183899137168360     
   2890.8443599969187        64.239550775300913        64.239550775307578     
   2891.1589311559815        62.196806675851441        66.232871923379861     
   2891.5023442767915        60.092828527961501        68.161934251963459     
   2891.8742669135613        57.929608550202587        70.024867677716230     
   2892.2743401828775        55.709195500562885        71.819862078330161     
   2892.7021789917171        53.433692984602388        73.545168968023717     
   2893.1573722810476        51.105257715867097        75.199103132372528     
   2893.6394832861224        48.726097729095216        76.780044221256375     
   2894.1480498146539        46.298470546767682        78.286438298678519     
   2894.6825845440735        43.824681299577648        79.716799348189852     
   2895.2425753390667        41.307080801416241        81.069710732624117     
   2895.8274855906461        38.748063579500304        82.343826606826951     
   2896.4367545779492        36.150065860296820        83.537873282032862     
   2897.0697978539301        33.515563511931063        84.650650540517304     
   2897.7260076561461        30.847069943803447        85.681032899124773     
   2898.4047533436501        28.147133964178231        86.627970820242183     
   2899.1053818610817        25.418337596552849        87.490491868762618     
   2899.8272182308433        22.663293855663468        88.267701813552904     
   2900.5695660742435        19.884644484035924        88.958785671913944     
   2901.3317081623286        17.085057650047339        89.563008695494588     
   2902.1129069970129        14.267225608525868        90.079717296095097     
   2902.9124054230369        11.433862324982208        90.508339909775046     
   2903.7294272710774        8.5877010646379475        90.848387797656983     
   2904.5631780322155        5.7314919474915058        91.099455781801026     
   2905.4128455638638        2.8679994707437677        91.261222914511990     
   2906.2776008269957       -9.4449342744960849E-012   91.333453079427471     
   2907.1565986544465       -2.8697207693204594        91.315995522731441     
   2908.0489785498444       -5.7383703785765130        91.208785312836241     
   2908.9538655165579       -8.6031521991397355        91.011843726879405     
   2909.8703709159035       -11.461268050147503        90.725278562393513     
   2910.7975933536500       -14.309920839074955        90.349284372522888     
   2911.7346195937284       -17.146317223052304        89.884142623186278     
   2912.6805254978412       -19.967670288818930        89.330221770614827     
   2913.6343769895666       -22.771202249083142        88.687977257735142     
   2914.5952310413322       -25.554147152942026        87.957951427913827     
   2915.5621366825430       -28.313753607901138        87.140773354636906     
   2916.5341360269726       -31.047287510918405        86.237158585761591     
   2917.5102653174122       -33.752034785783181        85.247908801052674     
   2918.4895559854376       -36.425304124027321        84.173911381797708     
   2919.4710357241001       -39.064429726456417        83.016138891389190     
   2920.4537295711566       -41.666774042280139        81.775648465861124     
   2921.4366610004959       -44.229730502718546        80.453581113480425     
   2922.4188530192309       -46.750726245860790        79.051160922610265     
   2923.3993292679834       -49.227224829460397        77.569694177193753     
   2924.3771151217711       -51.656728928262929        76.010568379340341     
   2925.3512387889400       -54.036783012381640        74.375251178643296     
   2926.3207324055616       -56.364976003164124        72.665289208008872     
   2927.2846331227329       -58.638943902928112        70.882306825936226     
   2928.2419841842466       -60.856372394889028        69.028004765353515     
   2929.1918359921483       -63.014999409555791        67.104158689286933     
   2930.1332471577693       -65.112617653836097        65.112617653815860     
   2931.0652855358821       -67.147077099065257        63.055302478948690     
   2931.9870292397427       -69.116287424160035        60.934204028237978     
   2932.8975676348823       -71.018220410093903        58.751381398141255     
   2933.7960023096325       -72.850912281899340        56.508960018322853     
   2934.6814480205039       -74.612465994421569        54.209129664282202     
   2935.5530336106908       -76.301053458080119        51.854142383884657     
   2936.4099029001381       -77.914917700937835        49.446310339560746     
   2937.2512155457448       -79.452374963430316        46.988003568126885     
   2938.0761478704812       -80.911816722176781        44.481647660367145     
   2938.8838936603834       -82.291711639369453        41.929721362697428     
   2939.6736649285244       -83.590607434326913        39.334754103411377     
   2940.4446926453365       -84.807132673896788        36.699323446181303     
   2941.1962274347466       -85.939998478500613        34.026052473653820     
   2941.9275402358662       -86.988000140733476        31.317607104142727     
   2942.6379229301147       -87.950018653558487        28.576693344574547     
   2943.3266889338647       -88.825022145272072        25.806054482990618     
   2943.9931737568409       -89.612067218559574        23.008468224047242     
   2944.6367355267544       -90.310300191114266        20.186743771087247     
   2945.2567554807151       -90.918958235446922        17.343718858476947     
   2945.8526384242191       -91.437370415680718        14.482256738016474     
   2946.4238131585812       -91.864958619291713        11.605243123334029     
   2946.9697328778543       -92.201238381930636        8.7155830962692100     
   2947.4898755363852       -92.445819603637702        5.8161979793349809     
   2947.9837441882360       -92.598407154941967        2.9100221784227753     
   2948.4508672998418       -92.658801371520369       -1.9163981200766040E-011
   2948.8907990372850       -92.626898436274885       -2.9109175530482068     
   2949.3031195296489       -92.502690647871930       -5.8197760021977487     
   2949.6874351099736       -92.286266574975372       -8.7236206269853191     
   2950.0433785352961       -91.977811095589459       -11.619499706559457     
   2950.3706091872928       -91.577605321114987       -14.504467765066492     
   2950.6688132550557       -91.086026404908310       -17.375588816306742     
   2950.9377039013934       -90.503547235314400       -20.229939603246883     
   2951.1770214141147       -89.830736013331929       -23.064612827958594     
   2951.3865333435988       -89.068255715246551       -25.876720367566925     
   2951.5660346278892       -88.216863440749819       -28.663396471810408     
   2951.7153477064644       -87.277409647237945       -31.421800937841617     
   2951.8343226236766       -86.250837271159668       -34.149122257929655     
   2951.9228371227869       -85.138180737456437       -36.842580735766482     
   2951.9807967312772       -83.940564858306288       -39.499431567123452     
   2952.0081348380968       -82.659203622554116       -42.116967880658173     
   2952.0048127631999       -81.295398877372719       -44.692523734727949     
   2951.9708198196995       -79.850538903865640       -47.223477066131558     
   2951.9061733686472       -78.326096888479910       -49.707252586768810     
   2951.8109188664012       -76.723629292256845       -52.141324624284067     
   2951.6851299042596       -75.044774120102872       -54.523219902839315     
   2951.5289082399372       -73.291249092415725       -56.850520260249837     
   2951.3423838202157       -71.464849721549271       -59.120865297807001     
   2951.1257147939978       -69.567447295749602       -61.331954959210591     
   2950.8790875147606       -67.600986773336160       -63.481552035136858     
   2950.6027165312917       -65.567484590043975       -65.567484590077910     
   2950.2968445654301       -63.469026382579763       -67.587648308203455     
   2949.9617424753906       -61.307764631578351       -69.540008755117839     
   2949.5977092031417       -59.085916227275881       -71.422603552512598     
   2949.2050717041811       -56.805759961341487       -73.233544462849068     
   2948.7841848579901       -54.469633948431152       -74.971019381345897     
   2948.3354313573268       -52.079932981141518       -76.633294232693146     
   2947.8592215745275       -49.639105822155834       -78.218714770066669     
   2947.3559934028972       -47.149652437474437       -79.725708274178075     
   2946.8262120712575       -44.614121174725163       -81.152785150257571     
   2946.2703699297845       -42.035105890637126       -82.498540421042875     
   2945.6889862051962       -39.415243031848675       -83.761655114020243     
   2945.0826067234980       -36.757208673293320       -84.940897541350949     
   2944.4518035984925       -34.063715518479000       -86.035124471101682     
   2943.7971748843761       -31.337509866030317       -87.043282188592542     
   2943.1193441908513       -28.581368546917240       -87.964407446872386     
   2942.4189602593178       -25.798095836828015       -88.797628305534943     
   2941.6966964988337       -22.990520348177064       -89.542164857291240     
   2940.9532504807235       -20.161491906251356       -90.197329841924187     
   2940.1893433908713       -17.313878414009658       -90.762529147457997     
   2939.4057194389488       -14.450562710038341       -91.237262198588439     
   2938.6031452240186       -11.574439424154647       -91.621122232628082     
   2937.7824090561971       -8.6884118351141773       -91.913796463433982     
   2936.9443202342372       -5.7953887348396620       -92.115066133991476     
   2936.0897082792144       -2.8982813035341133       -92.224806458537373     
   2935.2194221246336        2.8657935716686936E-011  -92.242986455306223     
   2934.3343292636123        2.8965485288170196       -92.169668671185661     
   2933.4353148539881        5.7884645143349758       -92.005008799758144     
   2932.5232807824509        8.6728581058700023       -91.749255194395872     
   2931.5991446890571        11.546852378287801       -91.402748278256212     
   2930.6638389536984        14.407586304585209       -90.965919853197605     
   2929.7183096463596        17.252217689551895       -90.439292309800578     
   2928.7635154431696        20.077926061029260       -89.823477740832530     
   2927.8004265105069        22.881915515412363       -89.119176960640004     
   2926.8300233595919        25.661417514194895       -88.327178433085393     
   2925.8532956741838        28.413693628528968       -87.448357110766466     
   2924.8712411141710        31.136038228938762       -86.483673188368456     
   2923.8848640979795        33.825781117508690       -85.434170773093967     
   2922.8951745668687        36.480290100045274       -84.300976475202859     
   2921.9031867342856        39.096973495895838       -83.085297921765616     
   2920.9099178235401        41.673282583295475       -81.788422196791416     
   2919.9163867971256        44.206713978296044       -80.411714210940630     
   2918.9236130810623        46.694811945521437       -78.956615004061277     
   2917.9326152876756        49.135170639173801       -77.424639983813151     
   2916.9444099401971        51.525436272901572       -75.817377103647004     
   2915.9600102025893        53.863309217315042       -74.136484983405950     
   2914.9804246179219        56.146546024113441       -72.383690975796867     
   2914.0066558586036        58.372961375953167       -70.560789181956665     
   2913.0396994916496        60.540429961353453       -68.669638419296959     
   2912.0805427620990        62.646888274088710       -66.712160144767878     
   2911.1301633975609        64.690336336669603       -64.690336336622750     
   2910.1895284367270        66.668839347651939       -62.606207337704113     