 VARIABLES = "x_1", "x_2", "x_3"
 ZONE F = POINT , I =         201  , J =         101
   1223.0367509539151        0.0000000000000000        0.0000000000000000     
   1223.0499817324060        0.0000000000000000        0.0000000000000000     
   1223.0627850387243        0.0000000000000000        0.0000000000000000     
   1223.0751103014522        0.0000000000000000        0.0000000000000000     
   1223.0869088328886        0.0000000000000000        0.0000000000000000     
   1223.0981340219168        0.0000000000000000        0.0000000000000000     
   1223.1087415187076        0.0000000000000000        0.0000000000000000     
   1223.1186894105251        0.0000000000000000        0.0000000000000000     
   1223.1279383879212        0.0000000000000000        0.0000000000000000     
   1223.1364519006561        0.0000000000000000        0.0000000000000000     
   1223.1441963027155        0.0000000000000000        0.0000000000000000     
   1223.1511409858390        0.0000000000000000        0.0000000000000000     
   1223.1572585010204        0.0000000000000000        0.0000000000000000     
   1223.1625246674919        0.0000000000000000        0.0000000000000000     
   1223.1669186687520        0.0000000000000000        0.0000000000000000     
   1223.1704231352435        0.0000000000000000        0.0000000000000000     
   1223.1730242133522        0.0000000000000000        0.0000000000000000     
   1223.1747116204456        0.0000000000000000        0.0000000000000000     
   1223.1754786857286        0.0000000000000000        0.0000000000000000     
   1223.1753223767491        0.0000000000000000        0.0000000000000000     
   1223.1742433114475        0.0000000000000000        0.0000000000000000     
   1223.1722457557007        0.0000000000000000        0.0000000000000000     
   1223.1693376063738        0.0000000000000000        0.0000000000000000     
   1223.1655303599393        0.0000000000000000        0.0000000000000000     
   1223.1608390668039        0.0000000000000000        0.0000000000000000     
   1223.1552822715146        0.0000000000000000        0.0000000000000000     
   1223.1488819390977        0.0000000000000000        0.0000000000000000     
   1223.1416633678223        0.0000000000000000        0.0000000000000000     
   1223.1336550887404        0.0000000000000000        0.0000000000000000     
   1223.1248887524171        0.0000000000000000        0.0000000000000000     
   1223.1153990032997        0.0000000000000000        0.0000000000000000     
   1223.1052233422399        0.0000000000000000        0.0000000000000000     
   1223.0944019777180        0.0000000000000000        0.0000000000000000     
   1223.0829776663750        0.0000000000000000        0.0000000000000000     
   1223.0709955434847        0.0000000000000000        0.0000000000000000     
   1223.0585029440599        0.0000000000000000        0.0000000000000000     
   1223.0455492152989        0.0000000000000000        0.0000000000000000     
   1223.0321855211305        0.0000000000000000        0.0000000000000000     
   1223.0184646396410        0.0000000000000000        0.0000000000000000     
   1223.0044407541873        0.0000000000000000        0.0000000000000000     
   1222.9901692390354        0.0000000000000000        0.0000000000000000     
   1222.9757064403773        0.0000000000000000        0.0000000000000000     
   1222.9611094535931        0.0000000000000000        0.0000000000000000     
   1222.9464358976513        0.0000000000000000        0.0000000000000000     
   1222.9317436875326        0.0000000000000000        0.0000000000000000     
   1222.9170908055876        0.0000000000000000        0.0000000000000000     
   1222.9025350727234        0.0000000000000000        0.0000000000000000     
   1222.8881339203274        0.0000000000000000        0.0000000000000000     
   1222.8739441638234        0.0000000000000000        0.0000000000000000     
   1222.8600217787539        0.0000000000000000        0.0000000000000000     
   1222.8464216802643       -0.0000000000000000        0.0000000000000000     
   1222.8331975068525       -0.0000000000000000        0.0000000000000000     
   1222.8204014092330       -0.0000000000000000        0.0000000000000000     
   1222.8080838451378       -0.0000000000000000        0.0000000000000000     
   1222.7962933808560       -0.0000000000000000        0.0000000000000000     
   1222.7850765002806       -0.0000000000000000        0.0000000000000000     
   1222.7744774222117       -0.0000000000000000        0.0000000000000000     
   1222.7645379266166       -0.0000000000000000        0.0000000000000000     
   1222.7552971905307       -0.0000000000000000        0.0000000000000000     
   1222.7467916342223       -0.0000000000000000        0.0000000000000000     
   1222.7390547782286       -0.0000000000000000        0.0000000000000000     
   1222.7321171118042       -0.0000000000000000        0.0000000000000000     
   1222.7260059732980       -0.0000000000000000        0.0000000000000000     
   1222.7207454429131       -0.0000000000000000        0.0000000000000000     
   1222.7163562482667       -0.0000000000000000        0.0000000000000000     
   1222.7128556831130       -0.0000000000000000        0.0000000000000000     
   1222.7102575395400       -0.0000000000000000        0.0000000000000000     
   1222.7085720539001       -0.0000000000000000        0.0000000000000000     
   1222.7078058666862       -0.0000000000000000        0.0000000000000000     
   1222.7079619965029       -0.0000000000000000        0.0000000000000000     
   1222.7090398282355       -0.0000000000000000        0.0000000000000000     
   1222.7110351154606       -0.0000000000000000        0.0000000000000000     
   1222.7139399970902       -0.0000000000000000        0.0000000000000000     
   1222.7177430281838       -0.0000000000000000        0.0000000000000000     
   1222.7224292248141       -0.0000000000000000        0.0000000000000000     
   1222.7279801228094       -0.0000000000000000        0.0000000000000000     
   1222.7343738501459       -0.0000000000000000        0.0000000000000000     
   1222.7415852127222       -0.0000000000000000        0.0000000000000000     
   1222.7495857931706       -0.0000000000000000        0.0000000000000000     
   1222.7583440623384       -0.0000000000000000        0.0000000000000000     
   1222.7678255030028       -0.0000000000000000        0.0000000000000000     
   1222.7779927453407       -0.0000000000000000        0.0000000000000000     
   1222.7888057136402       -0.0000000000000000        0.0000000000000000     
   1222.8002217836738       -0.0000000000000000        0.0000000000000000     
   1222.8121959501379       -0.0000000000000000        0.0000000000000000     
   1222.8246810034977       -0.0000000000000000        0.0000000000000000     
   1222.8376277155603       -0.0000000000000000        0.0000000000000000     
   1222.8509850330547       -0.0000000000000000        0.0000000000000000     
   1222.8647002784585       -0.0000000000000000        0.0000000000000000     
   1222.8787193572994       -0.0000000000000000        0.0000000000000000     
   1222.8929869711142       -0.0000000000000000        0.0000000000000000     
   1222.9074468352374       -0.0000000000000000        0.0000000000000000     
   1222.9220419005685       -0.0000000000000000        0.0000000000000000     
   1222.9367145784413       -0.0000000000000000        0.0000000000000000     
   1222.9514069677225       -0.0000000000000000        0.0000000000000000     
   1222.9660610832366       -0.0000000000000000        0.0000000000000000     
   1222.9806190846211       -0.0000000000000000        0.0000000000000000     
   1222.9950235047147       -0.0000000000000000        0.0000000000000000     
   1223.0092174765587       -0.0000000000000000        0.0000000000000000     
   1223.0231449581322       -0.0000000000000000        0.0000000000000000     
   1223.0367509539151       -0.0000000000000000       -0.0000000000000000     
   1223.0499817324062       -0.0000000000000000       -0.0000000000000000     
   1223.0627850387245       -0.0000000000000000       -0.0000000000000000     
   1223.0751103014522       -0.0000000000000000       -0.0000000000000000     
   1223.0869088328889       -0.0000000000000000       -0.0000000000000000     
   1223.0981340219168       -0.0000000000000000       -0.0000000000000000     
   1223.1087415187080       -0.0000000000000000       -0.0000000000000000     
   1223.1186894105253       -0.0000000000000000       -0.0000000000000000     
   1223.1279383879209       -0.0000000000000000       -0.0000000000000000     
   1223.1364519006559       -0.0000000000000000       -0.0000000000000000     
   1223.1441963027157       -0.0000000000000000       -0.0000000000000000     
   1223.1511409858392       -0.0000000000000000       -0.0000000000000000     
   1223.1572585010204       -0.0000000000000000       -0.0000000000000000     
   1223.1625246674921       -0.0000000000000000       -0.0000000000000000     
   1223.1669186687520       -0.0000000000000000       -0.0000000000000000     
   1223.1704231352435       -0.0000000000000000       -0.0000000000000000     
   1223.1730242133522       -0.0000000000000000       -0.0000000000000000     
   1223.1747116204456       -0.0000000000000000       -0.0000000000000000     
   1223.1754786857286       -0.0000000000000000       -0.0000000000000000     
   1223.1753223767489       -0.0000000000000000       -0.0000000000000000     
   1223.1742433114473       -0.0000000000000000       -0.0000000000000000     
   1223.1722457557007       -0.0000000000000000       -0.0000000000000000     
   1223.1693376063738       -0.0000000000000000       -0.0000000000000000     
   1223.1655303599393       -0.0000000000000000       -0.0000000000000000     
   1223.1608390668036       -0.0000000000000000       -0.0000000000000000     
   1223.1552822715146       -0.0000000000000000       -0.0000000000000000     
   1223.1488819390977       -0.0000000000000000       -0.0000000000000000     
   1223.1416633678223       -0.0000000000000000       -0.0000000000000000     
   1223.1336550887404       -0.0000000000000000       -0.0000000000000000     
   1223.1248887524171       -0.0000000000000000       -0.0000000000000000     
   1223.1153990032997       -0.0000000000000000       -0.0000000000000000     
   1223.1052233422397       -0.0000000000000000       -0.0000000000000000     
   1223.0944019777180       -0.0000000000000000       -0.0000000000000000     
   1223.0829776663750       -0.0000000000000000       -0.0000000000000000     
   1223.0709955434845       -0.0000000000000000       -0.0000000000000000     
   1223.0585029440599       -0.0000000000000000       -0.0000000000000000     
   1223.0455492152987       -0.0000000000000000       -0.0000000000000000     
   1223.0321855211305       -0.0000000000000000       -0.0000000000000000     
   1223.0184646396410       -0.0000000000000000       -0.0000000000000000     
   1223.0044407541873       -0.0000000000000000       -0.0000000000000000     
   1222.9901692390351       -0.0000000000000000       -0.0000000000000000     
   1222.9757064403773       -0.0000000000000000       -0.0000000000000000     
   1222.9611094535931       -0.0000000000000000       -0.0000000000000000     
   1222.9464358976513       -0.0000000000000000       -0.0000000000000000     
   1222.9317436875326       -0.0000000000000000       -0.0000000000000000     
   1222.9170908055878       -0.0000000000000000       -0.0000000000000000     
   1222.9025350727236       -0.0000000000000000       -0.0000000000000000     
   1222.8881339203274       -0.0000000000000000       -0.0000000000000000     
   1222.8739441638229       -0.0000000000000000       -0.0000000000000000     
   1222.8600217787539       -0.0000000000000000       -0.0000000000000000     
   1222.8464216802643        0.0000000000000000       -0.0000000000000000     
   1222.8331975068525        0.0000000000000000       -0.0000000000000000     
   1222.8204014092328        0.0000000000000000       -0.0000000000000000     
   1222.8080838451376        0.0000000000000000       -0.0000000000000000     
   1222.7962933808558        0.0000000000000000       -0.0000000000000000     
   1222.7850765002806        0.0000000000000000       -0.0000000000000000     
   1222.7744774222115        0.0000000000000000       -0.0000000000000000     
   1222.7645379266164        0.0000000000000000       -0.0000000000000000     
   1222.7552971905307        0.0000000000000000       -0.0000000000000000     
   1222.7467916342223        0.0000000000000000       -0.0000000000000000     
   1222.7390547782286        0.0000000000000000       -0.0000000000000000     
   1222.7321171118042        0.0000000000000000       -0.0000000000000000     
   1222.7260059732980        0.0000000000000000       -0.0000000000000000     
   1222.7207454429131        0.0000000000000000       -0.0000000000000000     
   1222.7163562482665        0.0000000000000000       -0.0000000000000000     
   1222.7128556831130        0.0000000000000000       -0.0000000000000000     
   1222.7102575395400        0.0000000000000000       -0.0000000000000000     
   1222.7085720539001        0.0000000000000000       -0.0000000000000000     
   1222.7078058666862        0.0000000000000000       -0.0000000000000000     
   1222.7079619965032        0.0000000000000000       -0.0000000000000000     
   1222.7090398282357        0.0000000000000000       -0.0000000000000000     
   1222.7110351154606        0.0000000000000000       -0.0000000000000000     
   1222.7139399970899        0.0000000000000000       -0.0000000000000000     
   1222.7177430281836        0.0000000000000000       -0.0000000000000000     
   1222.7224292248141        0.0000000000000000       -0.0000000000000000     
   1222.7279801228094        0.0000000000000000       -0.0000000000000000     
   1222.7343738501461        0.0000000000000000       -0.0000000000000000     
   1222.7415852127219        0.0000000000000000       -0.0000000000000000     
   1222.7495857931708        0.0000000000000000       -0.0000000000000000     
   1222.7583440623387        0.0000000000000000       -0.0000000000000000     
   1222.7678255030025        0.0000000000000000       -0.0000000000000000     
   1222.7779927453410        0.0000000000000000       -0.0000000000000000     
   1222.7888057136402        0.0000000000000000       -0.0000000000000000     
   1222.8002217836740        0.0000000000000000       -0.0000000000000000     
   1222.8121959501379        0.0000000000000000       -0.0000000000000000     
   1222.8246810034975        0.0000000000000000       -0.0000000000000000     
   1222.8376277155603        0.0000000000000000       -0.0000000000000000     
   1222.8509850330549        0.0000000000000000       -0.0000000000000000     
   1222.8647002784585        0.0000000000000000       -0.0000000000000000     
   1222.8787193572996        0.0000000000000000       -0.0000000000000000     
   1222.8929869711142        0.0000000000000000       -0.0000000000000000     
   1222.9074468352376        0.0000000000000000       -0.0000000000000000     
   1222.9220419005685        0.0000000000000000       -0.0000000000000000     
   1222.9367145784415        0.0000000000000000       -0.0000000000000000     
   1222.9514069677230        0.0000000000000000       -0.0000000000000000     
   1222.9660610832364        0.0000000000000000       -0.0000000000000000     
   1222.9806190846214        0.0000000000000000       -0.0000000000000000     
   1222.9950235047149        0.0000000000000000       -0.0000000000000000     
   1223.0092174765587        0.0000000000000000       -0.0000000000000000     
   1223.0231449581322        0.0000000000000000       -0.0000000000000000     
   1223.0367509539153        0.0000000000000000        0.0000000000000000     
   1242.1808335281114        39.037105348408687        0.0000000000000000     
   1242.9670791171015        39.042539464194668        1.2269612322098991     
   1243.7311334390713        39.008698537568712        2.4542192884892313     
   1244.4722212092206        38.935547470095322        3.6804928581263363     
   1245.1896052963762        38.823094984796121        4.9044974587838404     
   1245.8825864354299        38.671393831592567        6.1249470685869234     
   1246.5505027823465        38.480540920562589        7.3405557674868467     
   1247.1927293324495        38.250677383481971        8.5500393839638331     
   1247.8086772231543        37.981988564370546        9.7521171433170704     
   1248.3977929424236        37.674703939975899        10.945513313987506     
   1248.9595574640259        37.329096971303663        12.128958848565542     
   1249.4934853301468        36.945484887442902        13.301193016344882     
   1249.9991237011368        36.524228403042628        14.460965024490893     
   1250.4760513911178        36.065731370870175        15.607035625091905     
   1250.9238779069333        35.570440370930285        16.738178705551324     
   1251.3422425064853        35.038844237646678        17.853182859953570     
   1251.7308132909081        34.471473526610723        18.950852939195649     
   1252.0892863433542        33.868899922388863        20.030011577816055     
   1252.4173849253680        33.231735588854406        21.089500695573385     
   1252.7148587400420        32.560632463476715        22.128182971927380     
   1252.9814832693053        31.856281496963248        23.144943291656094     
   1253.2170591909075        31.119411839612436        24.138690159904279     
   1253.4214118789223        30.350789975701858        25.108357085003114     
   1253.5943909899081        29.551218807207359        26.052903927429256     
   1253.7358701353137        28.721536688130051        26.971318213287127     
   1253.8457466392456        27.862616410699040        27.862616410701925     
   1253.9239413794098        26.975364144721645        28.725845167507131     
   1253.9703987078490        26.060718331368886        29.560082508600185     
   1253.9850864470832        25.119648532714990        30.364438991327422     
   1253.9679959563850        24.153154238392972        31.138058817246637     
   1253.9191422622102        23.162263630785876        31.880120898604844     
   1253.8385642462417        22.148032310242513        32.589839877863277     
   1253.7263248841064        21.111541981887537        33.266467098602490     
   1253.5825115275404        20.053899105685975        33.909291526149879     
   1253.4072362226630        18.976233511521404        34.517640616291864     
   1253.2006360569874        17.879696981151845        35.090881130463607     
   1252.9628735279091        16.765461799016791        35.628419895852325     
   1252.6941369255899        15.634719273981316        36.129704508905810     
   1252.3946407234303        14.488678234215113        36.594223980806262     
   1252.0646259696662        13.328563497515972        37.021509323550688     
   1251.7043606739971        12.155614319495214        37.411134075372729     
   1251.3141401835958        10.971082822145918        37.762714764346050     
   1250.8942875432731        9.7762324054119620        38.075911309125715     
   1250.4451538350477        8.5723361444657353        38.350427355910625     
   1249.9671184928086        7.3606751754833608        38.586010550845330     
   1249.4605895881948        6.1425370727779436        38.782452747222742     
   1248.9260040842421        4.9192142202128837        38.939590146999556     
   1248.3638280537141        3.6920021798682434        39.057303376291415     
   1247.7745568593916        2.4621980609729617        39.135517494674971     
   1247.1587152938778        1.2310988921445851        39.174201938286693     
   1246.5168576767417       -4.0509790907303811E-012   39.173370396873942     
   1245.8495679070177       -1.2298066028250625        39.133080625120016     
   1245.1574594692186       -2.4570338171005739        39.053434188731615     
   1244.4411753911434       -3.6804010409650179        38.934576145944106     
   1243.7013881517826       -4.8986357352617906        38.776694665264515     
   1242.9387995376544       -6.1104749673460788        38.580020580436809     
   1242.1541404458590       -7.3146669303895226        38.344826883775333     
   1241.3481706320708       -8.5099724352958752        38.071428159171823     
   1240.5216784015920       -9.6951663723989210        37.760179956238133     
   1239.6754802414664       -10.869039140184906        37.411478107200800     
   1238.8104203915273       -12.030398038361293        37.025757988314353     
   1237.9273703520983       -13.178068622681577        36.603493727707715     
   1237.0272283259433       -14.310896019032771        36.145197361722417     
   1236.1109185919229       -15.427746194396947        35.651417941941830     
   1235.1793908077113       -16.527507182412418        35.122740595246931     
   1234.2336192388500       -17.609090261382889        34.559785539367006     
   1233.2746019113633       -18.671431082714765        33.963207056520986     
   1232.3033596851728       -19.713490747904412        33.333692427868016     
   1231.3209352455829       -20.734256832347832        32.671960831602320     
   1230.3283920102415       -21.732744354406641        31.978762207638262     
   1229.3268129491250       -22.707996688334521        31.254876091933411     
   1228.3172993153644       -23.659086419849984        30.501110423592927     
   1227.3009692850248       -24.585116143332165        29.718300327982714     
   1226.2789565043538       -25.485219199817784        28.907306879153467     
   1225.2524085434634       -26.358560355188054        28.069015844939685     
   1224.2224852559723       -27.204336418155084        27.204336418146628     
   1223.1903570447428       -28.021776797885323        26.314199937272360     
   1222.1572030345390       -28.810144001334763        25.399558600229366     
   1221.1242091532120       -29.568734070613299        24.461384174530863     
   1220.0925661238255       -30.296876960943990        23.500666707387385     
   1219.0634673710495       -30.993936860035166        22.518413239120651     
   1218.0381068460727       -31.659312449936873        21.515646523240367     
   1217.0176767752721       -32.292437112706700        20.493403756446821     
   1216.0033653389178       -32.892779081461633        19.452735321715799     
   1214.9963542871951       -33.459841538638081        18.394703547491609     
   1213.9978165019170       -33.993162663521183        17.320381485860342     
   1213.0089135133212       -34.492315631332772        16.230851712396721     
   1212.0307929824035       -34.956908566382261        15.127205150176209     
   1211.0645861602218       -35.386584451983673        14.010539920218836     
   1210.1114053365957       -35.781021000022129        12.881960220384999     
   1209.1723412915028       -36.139930483210975        11.742575234475813     
   1208.2484607633246       -36.463059533214015        10.593498073005959     
   1207.3408039488261       -36.750188907913582        9.4358447468148334     
   1206.4503820504083       -37.001133231181520        8.2707331743673507     
   1205.5781748866732       -37.215740708554151        7.0992822232700314     
   1204.7251285827729       -37.393892822224188        5.9226107861961363     
   1203.8921533572407       -37.535504008737284        4.7418368910776065     
   1203.0801214221074       -37.640521322720829        3.5580768450866986     
   1202.2898650130617       -37.708924089875936        2.3724444116000067     
   1201.5221745661538       -37.740723552328987        1.1860500190163232     
   1200.7777970571408       -37.735962509269299       -7.8046690159616409E-012
   1200.0574345189593       -37.694714955593987       -1.1846041406306649     
   1199.3617427520282       -37.617085721042017       -2.3666664311993428     
   1198.6913302410755       -37.503210112028484       -3.5450971141590295     
   1198.0467572910279       -37.353253558091453       -4.7188133049417305     
   1197.4285353931073       -37.167411264538373       -5.8867396314540628     
   1196.8371268307224       -36.945907872533070       -7.0478088569213506     
   1196.2729445330115       -36.688997127500812       -8.2009624889423982     
   1195.7363521819732       -36.396961556353489       -9.3451513776620683     
   1195.2276645770455       -36.070112153653163       -10.479336305977377     
   1194.7471482587935       -35.708788076448677       -11.602488574653917     
   1194.2950223910168       -35.313356347139106       -12.713590585143889     
   1193.8714598981401       -34.884211563347975       -13.811636422764160     
   1193.4765888522290       -34.421775613438065       -14.895632442714298     
   1193.1104941013871       -33.926497395965328       -15.964597861191521     
   1192.7732191286675       -33.398852541066347       -17.017565353594986     
   1192.4647681280355       -32.839343131504165       -18.053581661509366     
   1192.1851082813334       -32.248497420866208       -19.071708209820908     
   1191.9341722176889       -31.626869546220380       -20.071021734953611     
   1191.7118606344120       -30.975039232395527       -21.050614924824316     
   1191.5180450561472       -30.293611484963993       -22.009597070709475     
   1191.3525707069750       -29.583216268968560       -22.947094730800362     
   1191.2152594682643       -28.844508170456180       -23.862252404804529     
   1191.1059128934526       -28.078166037957192       -24.754233218536431     
   1191.0243152495839       -27.284892601180196       -25.622219617038613     
   1190.9702365543844       -26.465414064378489       -26.465414064392185     
   1190.9434355769649       -25.620479672081419       -27.283039748020961     
   1190.9436627698901       -24.750861245169300       -28.074341284973855     
   1190.9706631004067       -23.857352685598865       -28.838585427391607     
   1191.0241787490586       -22.940769448452656       -29.575061764133686     
   1191.1039516447681       -22.001947980382585       -30.283083415362967     
   1191.2097258067204       -21.041745123938433       -30.961987716766199     
   1191.3412494650474       -20.061037487708855       -31.611136890027186     
   1191.4982769343824       -19.060720782644285       -32.229918696173961     
   1191.6805702167837       -18.041709125373952       -32.817747068485957     
   1191.8879003133472       -17.004934309757427       -33.374062721777968     
   1192.1200482269348       -15.951345048322979       -33.898333735066586     
   1192.3768056418919       -14.881906185624631       -34.390056104874546     
   1192.6579752702858       -13.797597885895646       -34.848754266729102     
   1192.9633708580957       -12.699414797674271       -35.273981582761152     
   1193.2928168487906       -11.588365198327018       -35.665320793700822     
   1193.6461477059140       -10.465470121584540       -36.022384433990382     
   1194.0232069004278       -9.3317624713356668       -36.344815209181469     
   1194.4238455727761       -8.1882861249878225       -36.632286335247663     
   1194.8479208836893       -7.0360950297010252       -36.884501839910371     
   1195.2952940717505       -5.8762522947306604       -37.101196826540452     
   1195.7658282394809       -4.7098292829795820       -37.282137701645091     
   1196.2593858932739       -3.5379047046580365       -37.427122367374629     
   1196.7758262657237       -2.3615637156906115       -37.535980380873234     
   1197.3150024518095       -1.1818970231944212       -37.608573082645222     
   1197.8767583929180        1.1695437444907970E-011  -37.644793696405387     
   1198.4609257447878        1.1830281903091513       -37.644567403122238     
   1199.0673206671356        2.3660854564730389       -37.607851392139331     
   1199.6957405739004        3.5480676304939269       -37.534634892370065     
   1200.3459608837691        4.7278693058388797       -37.424939186601428     
   1201.0177318108495        5.9043846634350778       -37.278817611910007     
   1201.7107752350928        7.0765082861288908       -37.096355549091136     
   1202.4247816912898        8.2431359628207694       -36.877670403829079     
   1203.1594075142166        9.4031654839008887       -36.622911582096343     
   1203.9142721758137        10.555497429994059       -36.332260461968907     
   1204.6889558481112        11.699035956364789       -36.005930363684691     
   1205.4829972230878        12.832689575619037       -35.644166519365385     
   1206.2958916176958        13.955371941568634       -35.247246043370318     
   1207.1270893890455        15.066002637286237       -34.815477903769057     
   1207.9759946811682        16.163507970472306       -34.349202894912032     
   1208.8419645209874        17.246821779278346       -33.848793610558118     
   1209.7243082771183        18.314886251677528       -33.314654416495166     
   1210.6222874909711        19.366652761350618       -32.747221421071842     
   1211.5351160854013        20.401082722857378       -32.146962441561243     
   1212.4619609518450        21.417148468599844       -31.514376963803031     
   1213.4019429126304        22.413834149753335       -30.849996092137065     
   1214.3541380509394        23.390136662954276       -30.154382486249698     
   1215.3175793968135        24.345066604092686       -29.428130281218372     
   1216.2912589536827        25.277649250074330       -28.671864986761502     
   1217.2741300461994        26.186925568896491       -27.886243361490433     
   1218.2651099667398        27.071953257837009       -27.071953257817402     
   1219.2630828948072        27.931807808992350       -26.229713433105786     