 VARIABLES = "x_1", "x_2", "x_3"
 ZONE F = POINT , I =         201  , J =         101
   14.099493417382506        0.0000000000000000        0.0000000000000000     
   14.099493417382506        0.0000000000000000        0.0000000000000000     
   14.099493417382506        0.0000000000000000        0.0000000000000000     
   14.099493417382506        0.0000000000000000        0.0000000000000000     
   14.099493417382506        0.0000000000000000        0.0000000000000000     
   14.099493417382506        0.0000000000000000        0.0000000000000000     
   14.099493417382506        0.0000000000000000        0.0000000000000000     
   14.099493417382506        0.0000000000000000        0.0000000000000000     
   14.099493417382506        0.0000000000000000        0.0000000000000000     
   14.099493417382506        0.0000000000000000        0.0000000000000000     
   14.099493417382506        0.0000000000000000        0.0000000000000000     
   14.099493417382506        0.0000000000000000        0.0000000000000000     
   14.099493417382506        0.0000000000000000        0.0000000000000000     
   14.099493417382506        0.0000000000000000        0.0000000000000000     
   14.099493417382506        0.0000000000000000        0.0000000000000000     
   14.099493417382506        0.0000000000000000        0.0000000000000000     
   14.099493417382506        0.0000000000000000        0.0000000000000000     
   14.099493417382506        0.0000000000000000        0.0000000000000000     
   14.099493417382506        0.0000000000000000        0.0000000000000000     
   14.099493417382506        0.0000000000000000        0.0000000000000000     
   14.099493417382506        0.0000000000000000        0.0000000000000000     
   14.099493417382506        0.0000000000000000        0.0000000000000000     
   14.099493417382506        0.0000000000000000        0.0000000000000000     
   14.099493417382506        0.0000000000000000        0.0000000000000000     
   14.099493417382506        0.0000000000000000        0.0000000000000000     
   14.099493417382506        0.0000000000000000        0.0000000000000000     
   14.099493417382506        0.0000000000000000        0.0000000000000000     
   14.099493417382506        0.0000000000000000        0.0000000000000000     
   14.099493417382506        0.0000000000000000        0.0000000000000000     
   14.099493417382506        0.0000000000000000        0.0000000000000000     
   14.099493417382506        0.0000000000000000        0.0000000000000000     
   14.099493417382506        0.0000000000000000        0.0000000000000000     
   14.099493417382506        0.0000000000000000        0.0000000000000000     
   14.099493417382506        0.0000000000000000        0.0000000000000000     
   14.099493417382506        0.0000000000000000        0.0000000000000000     
   14.099493417382506        0.0000000000000000        0.0000000000000000     
   14.099493417382506        0.0000000000000000        0.0000000000000000     
   14.099493417382506        0.0000000000000000        0.0000000000000000     
   14.099493417382506        0.0000000000000000        0.0000000000000000     
   14.099493417382506        0.0000000000000000        0.0000000000000000     
   14.099493417382506        0.0000000000000000        0.0000000000000000     
   14.099493417382506        0.0000000000000000        0.0000000000000000     
   14.099493417382506        0.0000000000000000        0.0000000000000000     
   14.099493417382506        0.0000000000000000        0.0000000000000000     
   14.099493417382506        0.0000000000000000        0.0000000000000000     
   14.099493417382506        0.0000000000000000        0.0000000000000000     
   14.099493417382506        0.0000000000000000        0.0000000000000000     
   14.099493417382506        0.0000000000000000        0.0000000000000000     
   14.099493417382506        0.0000000000000000        0.0000000000000000     
   14.099493417382506        0.0000000000000000        0.0000000000000000     
   14.099493417382506       -0.0000000000000000        0.0000000000000000     
   14.099493417382506       -0.0000000000000000        0.0000000000000000     
   14.099493417382506       -0.0000000000000000        0.0000000000000000     
   14.099493417382506       -0.0000000000000000        0.0000000000000000     
   14.099493417382506       -0.0000000000000000        0.0000000000000000     
   14.099493417382506       -0.0000000000000000        0.0000000000000000     
   14.099493417382506       -0.0000000000000000        0.0000000000000000     
   14.099493417382506       -0.0000000000000000        0.0000000000000000     
   14.099493417382506       -0.0000000000000000        0.0000000000000000     
   14.099493417382506       -0.0000000000000000        0.0000000000000000     
   14.099493417382506       -0.0000000000000000        0.0000000000000000     
   14.099493417382506       -0.0000000000000000        0.0000000000000000     
   14.099493417382506       -0.0000000000000000        0.0000000000000000     
   14.099493417382506       -0.0000000000000000        0.0000000000000000     
   14.099493417382506       -0.0000000000000000        0.0000000000000000     
   14.099493417382506       -0.0000000000000000        0.0000000000000000     
   14.099493417382506       -0.0000000000000000        0.0000000000000000     
   14.099493417382506       -0.0000000000000000        0.0000000000000000     
   14.099493417382506       -0.0000000000000000        0.0000000000000000     
   14.099493417382506       -0.0000000000000000        0.0000000000000000     
   14.099493417382506       -0.0000000000000000        0.0000000000000000     
   14.099493417382506       -0.0000000000000000        0.0000000000000000     
   14.099493417382506       -0.0000000000000000        0.0000000000000000     
   14.099493417382506       -0.0000000000000000        0.0000000000000000     
   14.099493417382506       -0.0000000000000000        0.0000000000000000     
   14.099493417382506       -0.0000000000000000        0.0000000000000000     
   14.099493417382506       -0.0000000000000000        0.0000000000000000     
   14.099493417382506       -0.0000000000000000        0.0000000000000000     
   14.099493417382506       -0.0000000000000000        0.0000000000000000     
   14.099493417382506       -0.0000000000000000        0.0000000000000000     
   14.099493417382506       -0.0000000000000000        0.0000000000000000     
   14.099493417382506       -0.0000000000000000        0.0000000000000000     
   14.099493417382506       -0.0000000000000000        0.0000000000000000     
   14.099493417382506       -0.0000000000000000        0.0000000000000000     
   14.099493417382506       -0.0000000000000000        0.0000000000000000     
   14.099493417382506       -0.0000000000000000        0.0000000000000000     
   14.099493417382506       -0.0000000000000000        0.0000000000000000     
   14.099493417382506       -0.0000000000000000        0.0000000000000000     
   14.099493417382506       -0.0000000000000000        0.0000000000000000     
   14.099493417382506       -0.0000000000000000        0.0000000000000000     
   14.099493417382506       -0.0000000000000000        0.0000000000000000     
   14.099493417382506       -0.0000000000000000        0.0000000000000000     
   14.099493417382506       -0.0000000000000000        0.0000000000000000     
   14.099493417382506       -0.0000000000000000        0.0000000000000000     
   14.099493417382506       -0.0000000000000000        0.0000000000000000     
   14.099493417382506       -0.0000000000000000        0.0000000000000000     
   14.099493417382506       -0.0000000000000000        0.0000000000000000     
   14.099493417382506       -0.0000000000000000        0.0000000000000000     
   14.099493417382506       -0.0000000000000000        0.0000000000000000     
   14.099493417382506       -0.0000000000000000        0.0000000000000000     
   14.099493417382506       -0.0000000000000000       -0.0000000000000000     
   14.099493417382506       -0.0000000000000000       -0.0000000000000000     
   14.099493417382506       -0.0000000000000000       -0.0000000000000000     
   14.099493417382506       -0.0000000000000000       -0.0000000000000000     
   14.099493417382506       -0.0000000000000000       -0.0000000000000000     
   14.099493417382506       -0.0000000000000000       -0.0000000000000000     
   14.099493417382506       -0.0000000000000000       -0.0000000000000000     
   14.099493417382506       -0.0000000000000000       -0.0000000000000000     
   14.099493417382506       -0.0000000000000000       -0.0000000000000000     
   14.099493417382506       -0.0000000000000000       -0.0000000000000000     
   14.099493417382506       -0.0000000000000000       -0.0000000000000000     
   14.099493417382506       -0.0000000000000000       -0.0000000000000000     
   14.099493417382506       -0.0000000000000000       -0.0000000000000000     
   14.099493417382506       -0.0000000000000000       -0.0000000000000000     
   14.099493417382506       -0.0000000000000000       -0.0000000000000000     
   14.099493417382506       -0.0000000000000000       -0.0000000000000000     
   14.099493417382506       -0.0000000000000000       -0.0000000000000000     
   14.099493417382506       -0.0000000000000000       -0.0000000000000000     
   14.099493417382506       -0.0000000000000000       -0.0000000000000000     
   14.099493417382506       -0.0000000000000000       -0.0000000000000000     
   14.099493417382506       -0.0000000000000000       -0.0000000000000000     
   14.099493417382506       -0.0000000000000000       -0.0000000000000000     
   14.099493417382506       -0.0000000000000000       -0.0000000000000000     
   14.099493417382506       -0.0000000000000000       -0.0000000000000000     
   14.099493417382506       -0.0000000000000000       -0.0000000000000000     
   14.099493417382506       -0.0000000000000000       -0.0000000000000000     
   14.099493417382506       -0.0000000000000000       -0.0000000000000000     
   14.099493417382506       -0.0000000000000000       -0.0000000000000000     
   14.099493417382506       -0.0000000000000000       -0.0000000000000000     
   14.099493417382506       -0.0000000000000000       -0.0000000000000000     
   14.099493417382506       -0.0000000000000000       -0.0000000000000000     
   14.099493417382506       -0.0000000000000000       -0.0000000000000000     
   14.099493417382506       -0.0000000000000000       -0.0000000000000000     
   14.099493417382506       -0.0000000000000000       -0.0000000000000000     
   14.099493417382506       -0.0000000000000000       -0.0000000000000000     
   14.099493417382506       -0.0000000000000000       -0.0000000000000000     
   14.099493417382506       -0.0000000000000000       -0.0000000000000000     
   14.099493417382506       -0.0000000000000000       -0.0000000000000000     
   14.099493417382506       -0.0000000000000000       -0.0000000000000000     
   14.099493417382506       -0.0000000000000000       -0.0000000000000000     
   14.099493417382506       -0.0000000000000000       -0.0000000000000000     
   14.099493417382506       -0.0000000000000000       -0.0000000000000000     
   14.099493417382506       -0.0000000000000000       -0.0000000000000000     
   14.099493417382506       -0.0000000000000000       -0.0000000000000000     
   14.099493417382506       -0.0000000000000000       -0.0000000000000000     
   14.099493417382506       -0.0000000000000000       -0.0000000000000000     
   14.099493417382506       -0.0000000000000000       -0.0000000000000000     
   14.099493417382506       -0.0000000000000000       -0.0000000000000000     
   14.099493417382506       -0.0000000000000000       -0.0000000000000000     
   14.099493417382506       -0.0000000000000000       -0.0000000000000000     
   14.099493417382506        0.0000000000000000       -0.0000000000000000     
   14.099493417382506        0.0000000000000000       -0.0000000000000000     
   14.099493417382506        0.0000000000000000       -0.0000000000000000     
   14.099493417382506        0.0000000000000000       -0.0000000000000000     
   14.099493417382506        0.0000000000000000       -0.0000000000000000     
   14.099493417382506        0.0000000000000000       -0.0000000000000000     
   14.099493417382506        0.0000000000000000       -0.0000000000000000     
   14.099493417382506        0.0000000000000000       -0.0000000000000000     
   14.099493417382506        0.0000000000000000       -0.0000000000000000     
   14.099493417382506        0.0000000000000000       -0.0000000000000000     
   14.099493417382506        0.0000000000000000       -0.0000000000000000     
   14.099493417382506        0.0000000000000000       -0.0000000000000000     
   14.099493417382506        0.0000000000000000       -0.0000000000000000     
   14.099493417382506        0.0000000000000000       -0.0000000000000000     
   14.099493417382506        0.0000000000000000       -0.0000000000000000     
   14.099493417382506        0.0000000000000000       -0.0000000000000000     
   14.099493417382506        0.0000000000000000       -0.0000000000000000     
   14.099493417382506        0.0000000000000000       -0.0000000000000000     
   14.099493417382506        0.0000000000000000       -0.0000000000000000     
   14.099493417382506        0.0000000000000000       -0.0000000000000000     
   14.099493417382506        0.0000000000000000       -0.0000000000000000     
   14.099493417382506        0.0000000000000000       -0.0000000000000000     
   14.099493417382506        0.0000000000000000       -0.0000000000000000     
   14.099493417382506        0.0000000000000000       -0.0000000000000000     
   14.099493417382506        0.0000000000000000       -0.0000000000000000     
   14.099493417382506        0.0000000000000000       -0.0000000000000000     
   14.099493417382506        0.0000000000000000       -0.0000000000000000     
   14.099493417382506        0.0000000000000000       -0.0000000000000000     
   14.099493417382506        0.0000000000000000       -0.0000000000000000     
   14.099493417382506        0.0000000000000000       -0.0000000000000000     
   14.099493417382506        0.0000000000000000       -0.0000000000000000     
   14.099493417382506        0.0000000000000000       -0.0000000000000000     
   14.099493417382506        0.0000000000000000       -0.0000000000000000     
   14.099493417382506        0.0000000000000000       -0.0000000000000000     
   14.099493417382506        0.0000000000000000       -0.0000000000000000     
   14.099493417382506        0.0000000000000000       -0.0000000000000000     
   14.099493417382506        0.0000000000000000       -0.0000000000000000     
   14.099493417382506        0.0000000000000000       -0.0000000000000000     
   14.099493417382506        0.0000000000000000       -0.0000000000000000     
   14.099493417382506        0.0000000000000000       -0.0000000000000000     
   14.099493417382506        0.0000000000000000       -0.0000000000000000     
   14.099493417382506        0.0000000000000000       -0.0000000000000000     
   14.099493417382506        0.0000000000000000       -0.0000000000000000     
   14.099493417382506        0.0000000000000000       -0.0000000000000000     
   14.099493417382506        0.0000000000000000       -0.0000000000000000     
   14.099493417382506        0.0000000000000000       -0.0000000000000000     
   14.099493417382506        0.0000000000000000       -0.0000000000000000     
   14.099493417382506        0.0000000000000000       -0.0000000000000000     
   14.099493417382506        0.0000000000000000       -0.0000000000000000     
   14.099493417382506        0.0000000000000000       -0.0000000000000000     
   14.099493417382506        0.0000000000000000        0.0000000000000000     
   13.074379867762206       0.41087894007615633        0.0000000000000000     
   13.051286026458769       0.40995080103686565        1.2883222938070303E-002
   13.029288633992252       0.40865391145832641        2.5710324861304753E-002
   13.008399493632112       0.40699113034611167        3.8471988860824965E-002
   12.988629562002535       0.40496547438486941        5.1159036671177306E-002
   12.969988967919123       0.40258011214751482        6.3762425748277465E-002
   12.952487030768708       0.39983835881343160        7.6273246181995213E-002
   12.936132278369048       0.39674367139294381        8.8682717478173037E-002
   12.920932464250733       0.39329964445375382       0.10098218524387377     
   12.906894584308496       0.38951000634356892       0.11316311780863376     
   12.894024892774222       0.38537861590176903       0.12521710281346948     
   12.882328917468717       0.38090945965168688       0.13713584379835136     
   12.871811474293590       0.37610664946386663       0.14891115681782208     
   12.862476680929246       0.37097442067955394       0.16053496711340740     
   12.854327969708732       0.36551713068260999       0.17199930587043993     
   12.847368099641397       0.35973925790706512       0.18329630708590366     
   12.841599167563770       0.35364540126659200       0.19441820457290318     
   12.837022618398896       0.34724027999131690       0.20535732912637203     
   12.833639254508352       0.34052873385654775       0.21610610587365828     
   12.831449244124714       0.33351572378722860       0.22665705183266474     
   12.830452128855059       0.32620633282117634       0.23700277369927622     
   12.830646830249025       0.31860576741344299       0.24713596588486836     
   12.832031655427722       0.31071935906346704       0.25704940882377858     
   12.834604301772565       0.30255256624601412       0.26673596756970713     
   12.838361860675260       0.29411097662626245       0.27618859069911539     
   12.843300820353155       0.28540030953877427       0.28540030953880380     
   12.849417067735937       0.27642641870947376       0.29436423773395465     
   12.856705889432531       0.26719529519916047       0.30307357117205347     
   12.865161971788790       0.25771307054649117       0.31152158827720722     
   12.874779400049087       0.24798602008777745       0.31970165068849782     
   12.885551656637078       0.23802056643037214       0.32760720433511492     
   12.897471618572721       0.22782328305582794       0.33523178092010181     
   12.910531554045372       0.21740089802844972       0.34256899982364275     
   12.924723118164366       0.20676029778427626       0.34961257043587585     
   12.940037347911044       0.19590853097496125       0.35635629492826748     
   12.956464656318319       0.18485281234045028       0.36279407147160470     
   12.973994825906116       0.17360052658377947       0.36891989790765528     
   12.992617001403325       0.16215923222075732       0.37472787588050438     
   13.012319681789403       0.15053666537672844       0.38021221543250777     
   13.033090711691226       0.13874074350206159       0.38536724006868334     
   13.054917272173231       0.12677956897745826       0.39018739229220772     
   13.077785870961677       0.11466143257963894       0.39466723961247768     
   13.101682332146686       0.10239481677744479       0.39880148102594898     
   13.126591785408333        8.9988398827883870E-002  0.40258495396864297     
   13.152498654816378        7.7451053641169998E-002  0.40601264173785839     
   13.179386647256127        6.4791856383342991E-002  0.40907968137918643     
   13.207238740536260        5.2020084784630834E-002  0.41178137203344456     
   13.236037171237687        3.9145221121325208E-002  0.41411318373657385     
   13.265763422366248        2.6176953838590665E-002  0.41607076666393089     
   13.296398210875370        1.3125178781326732E-002  0.41764996080869121     
   13.327921475128758       -4.3313598918567128E-014  0.41884680608231700     
   13.360312362376915       -1.3188269902167446E-002  0.41965755282318656     
   13.393549216325313       -2.6429109913167340E-002  0.42007867269756272     
   13.427609564876029       -3.9711791282306744E-002  0.42010686997507224     
   13.462470108128761       -5.3025378748330923E-002  0.41973909315879160     
   13.498106706731431       -6.6358732359734274E-002  0.41897254694787933     
   13.534494370674670       -7.9700509919954032E-002  0.41780470450846785     
   13.571607248628823       -9.3039170090117113E-002  0.41623332002622504     
   13.609418617926448      -0.10636297618146563       0.41425644151163171     
   13.647900875297220      -0.11966000066894558       0.41187242382657696     
   13.687025528466661      -0.13291813045665632       0.40907994189839075     
   13.726763188733941      -0.14612507292490420       0.40587800408487856     
   13.767083564647949      -0.15926836278748374       0.40226596565133094     
   13.807955456904727      -0.17233536978649613       0.39824354231785641     
   13.849346754592631      -0.18531330725051212       0.39381082383271987     
   13.891224432914949      -0.19818924154017001       0.38896828752470619     
   13.933554552522716      -0.21095010240336759       0.38371681178485101     
   13.976302260592689      -0.22358269426003952       0.37805768942522078     
   14.019431793787767      -0.23607370843410763       0.37199264085979272     
   14.062906483238514      -0.24840973634753469       0.36552382704990477     
   14.106688761685598      -0.26057728368849892       0.35865386215422884     
   14.150740172922987      -0.27256278556252039       0.35138582582079381     
   14.195021383681594      -0.28435262263192107       0.34372327505627243     
   14.239492198091810      -0.29593313824526718       0.33567025560557279     
   14.284111574861182      -0.30729065655443100       0.32723131277276107     
   14.328837647300722      -0.31841150161262566       0.31841150161252674     
   14.373627746329143      -0.32928201744219093       0.30921639641980547     
   14.418438426579398      -0.33988858905607722       0.29965209944383292     
   14.463225495725707      -0.35021766441186830       0.28972524875184646     
   14.507944047141764      -0.36025577727182462       0.27944302516691288     
   14.552548495992419      -0.36998957093683810       0.26881315820397561     
   14.596992618850880      -0.37940582281636553       0.25784393092820818     
   14.641229596922695      -0.38849146979040228       0.24654418366018629     
   14.685212062944625      -0.39723363431335856       0.23492331645324860     
   14.728892151812994      -0.40561965120338200       0.22299129026977624     
   14.772221554980431      -0.41363709505422386       0.21075862678498161     
   14.815151578643349      -0.42127380820024984       0.19823640674920698     
   14.857633205724085      -0.42851792915865478       0.18543626684270345     
   14.899617161632586      -0.43535792146644675       0.17237039496043319     
   14.941053983771392      -0.44178260282332132       0.15905152386860763     
   14.981894094725993      -0.44778117444525378       0.14549292317947363     
   15.022087879059542      -0.45334325052752206       0.13170838959629810     
   15.061585763606686      -0.45845888771000964       0.11771223538656533     
   15.100338301136730      -0.46311861443210883       0.10351927504811655     
   15.138296257230239      -0.46731346005937402        8.9144810140290076E-002
   15.175410700187452      -0.47103498365939067        7.4604612260074740E-002
   15.211633093759998      -0.47427530230013770        5.9914904151820735E-002
   15.246915392470724      -0.47702711874054643        4.5092338948149110E-002
   15.281210139260073      -0.47928374838004673        3.0153977549315081E-002
   15.314470565170646      -0.48103914533169723        1.5117264158361569E-002
   15.346650690756201      -0.48228792748211480       -9.9748287683596761E-014
   15.377705428876119      -0.48302540040088193       -1.5179684738795315E-002
   15.407590688512634      -0.48324757996248702       -3.0403360694573698E-002
   15.436263479225566      -0.48295121354519227       -4.5652330781933093E-002
   15.463682015838375      -0.48213379967355907       -6.0907663240726460E-002
   15.489805822930739      -0.48079360597474374       -7.6150226194032611E-002
   15.514595838695890      -0.47892968532310187       -9.1360723620818401E-002
   15.538014517706808      -0.47654189005315212      -0.10651973263685188     
   15.560025932124070      -0.47363088412753629      -0.12160774196644764     
   15.580595870869491      -0.47019815315426144      -0.13660519147717487     
   15.599691936284511      -0.46624601215621186      -0.15149251263971764     
   15.617283637790322      -0.46177761100562620      -0.16625016976578016     
   15.633342482068308      -0.45679693744691385      -0.18085870186837633     
   15.647842059284786      -0.45130881764276476      -0.19529876498114643     
   15.660758124892951      -0.44531891419092157      -0.20955117476659957     
   15.672068676557807      -0.43883372157214351      -0.22359694923749093     
   15.681754025766560      -0.43186055900370329      -0.23741735141099110     
   15.689796863707318      -0.42440756068711116      -0.25099393171196721     
   15.696182321023025      -0.41648366345354004      -0.26430856993964152     
   15.700898021075407      -0.40809859182550168      -0.27734351661117518     
   15.703934126384519      -0.39926284052856503      -0.29008143349637650     
   15.705283377943932      -0.38998765450217721      -0.30250543315979073     
   15.704941127148718      -0.38028500647379682      -0.31459911732989521     
   15.702905360113009      -0.37016757217544050      -0.32634661391997855     
   15.699176714196209      -0.35964870329622961      -0.33773261253154291     
   15.693758486600753      -0.34874239827846171      -0.34874239827864217     
   15.686656634949818      -0.33746327107798241      -0.35936188378044459     
   15.677879769799953      -0.32582651802207152      -0.36957763917938968     
   15.667439139090934      -0.31384788290955196      -0.37937692005352175     
   15.655348604582560      -0.30154362050827288      -0.38874769310382423     
   15.641624610375215      -0.28893045861440037      -0.39767865951053027     
   15.626286143657810      -0.27602555884599000      -0.40615927586634676     
   15.609354687871885      -0.26284647635004010      -0.41417977260912631     
   15.590854168524563      -0.24941111860754978      -0.42173116989167458     
   15.570810891925044      -0.23573770352504120      -0.42880529084187746     
   15.549253477158505      -0.22184471700344741      -0.43539477218208389     
   15.526212781648526      -0.20775087017629978      -0.44149307219249795     
   15.501721820692444      -0.19347505650867225      -0.44709447601908425     
   15.475815681384821      -0.17903630894648981      -0.45219409834202529     
   15.448531431370931      -0.16445375730251552      -0.45678788343594934     
   15.419908022895385      -0.14974658606075186      -0.46087260266782709     
   15.389986192630253      -0.13493399277509563      -0.46444584949250634     
   15.358808357782234      -0.12003514723105459      -0.46750603201917307     
   15.326418508989782      -0.10506915153116060      -0.47005236323452543     
   15.292862100528152       -9.0055001255598011E-002 -0.47208484897998559     
   15.258185938343455       -7.5011547839521325E-002 -0.47360427379081693     
   15.222438066436302       -5.9957462297782031E-002 -0.47461218471446548     
   15.185667652110707       -4.4911200416335978E-002 -0.47511087323375595     
   15.147924870595984       -2.9890969517681540E-002 -0.47510335542772442     
   15.109260789537869       -1.4914696895349180E-002 -0.47459335050882034     
   15.069727253839767        1.4713287587745033E-013 -0.47358525787993921     
   15.029376771318063        1.4835841554197730E-002 -0.47208413285831574     
   14.988262399614138        2.9575912102914756E-002 -0.47009566121563595     
   14.946437634783639        4.4203684125612985E-002 -0.46762613268495246     
   14.903956301958269        5.8703040483189112E-002 -0.46468241358506457     
   14.860872448448761        7.3058294682783895E-002 -0.46127191871204581     
   14.817240239629779        8.7254209160927035E-002 -0.45740258264562417     
   14.773113857918062       0.10127601158865268      -0.45308283061519061     
   14.728547405125196       0.11510940921287255      -0.44832154906642407     
   14.683594808435796       0.12874060125842895      -0.44312805606493860     
   14.638309730231079       0.14215628942477820      -0.43751207166806749     
   14.592745481946901       0.15534368652002359      -0.43148368838998519     
   14.546954942125280       0.16829052328310215      -0.42505334187891874     
   14.500990478787797       0.18098505345220378      -0.41823178191827565     
   14.454903876230844       0.19341605714402912      -0.41103004385625486     
   14.408746266313738       0.20557284261423481      -0.40345942056091322     
   14.362568064284167       0.21744524647435848      -0.39553143498990345     
   14.316418909159220       0.22902363244472190      -0.38725781345616711     
   14.270347608655760       0.24029888872622182      -0.37865045966289823     
   14.224402088641286       0.25126242407665250      -0.36972142957312337     
   14.178629347054525       0.26190616267917755      -0.36048290717133558     
   14.133075412225613       0.27222253789193174      -0.35094718116683782     
   14.087785305507502       0.28220448496841483      -0.34112662268085636     
   14.042803008113706       0.29184543283847147      -0.33103366395207895     
   13.998171432043053       0.30113929503919729      -0.32068077808817014     
   13.953932394958885       0.31008045988418553      -0.31008045988396093     
   13.910126598878886       0.31866377995810985      -0.29924520772051794     