 VARIABLES = "x_1", "x_2", "x_3"
 ZONE F = POINT , I =         201  , J =         101
   12.582991008584761        0.0000000000000000        0.0000000000000000     
   12.883350795586049        0.0000000000000000        0.0000000000000000     
   13.211138105686413        0.0000000000000000        0.0000000000000000     
   13.569076796715470        0.0000000000000000        0.0000000000000000     
   13.960304371605163        0.0000000000000000        0.0000000000000000     
   14.388448291449899        0.0000000000000000        0.0000000000000000     
   14.857719748811061        0.0000000000000000        0.0000000000000000     
   15.373029587944659        0.0000000000000000        0.0000000000000000     
   15.940132502991426        0.0000000000000000        0.0000000000000000     
   16.565807583175019        0.0000000000000000        0.0000000000000000     
   17.258085884424261        0.0000000000000000        0.0000000000000000     
   18.026539230238047        0.0000000000000000        0.0000000000000000     
   18.882649196894373        0.0000000000000000        0.0000000000000000     
   19.840281612844372        0.0000000000000000        0.0000000000000000     
   20.916300336606252        0.0000000000000000        0.0000000000000000     
   22.131364916531602        0.0000000000000000        0.0000000000000000     
   23.510969832275176        0.0000000000000000        0.0000000000000000     
   25.086796676128117        0.0000000000000000        0.0000000000000000     
   26.898458939895871        0.0000000000000000        0.0000000000000000     
   28.995705296192323        0.0000000000000000        0.0000000000000000     
   31.441067686716281        0.0000000000000000        0.0000000000000000     
   34.312685350285150        0.0000000000000000        0.0000000000000000     
   37.706336821115499        0.0000000000000000        0.0000000000000000     
   41.733936320454433        0.0000000000000000        0.0000000000000000     
   46.511514351316961        0.0000000000000000        0.0000000000000000     
   52.120516707747981        0.0000000000000000        0.0000000000000000     
   58.510356983402801        0.0000000000000000        0.0000000000000000     
   65.300145794469771        0.0000000000000000        0.0000000000000000     
   71.504812062008611        0.0000000000000000        0.0000000000000000     
   75.494669005870193        0.0000000000000000        0.0000000000000000     
   75.762953626864288        0.0000000000000000        0.0000000000000000     
   72.193997012421988        0.0000000000000000        0.0000000000000000     
   66.177588273159330        0.0000000000000000        0.0000000000000000     
   59.392698188249703        0.0000000000000000        0.0000000000000000     
   52.918437290392411        0.0000000000000000        0.0000000000000000     
   47.199464057974190        0.0000000000000000        0.0000000000000000     
   42.315891271877611        0.0000000000000000        0.0000000000000000     
   38.196283880012842        0.0000000000000000        0.0000000000000000     
   34.726084302957901        0.0000000000000000        0.0000000000000000     
   31.791796010980875        0.0000000000000000        0.0000000000000000     
   29.295307319133304        0.0000000000000000        0.0000000000000000     
   27.156242518482209        0.0000000000000000        0.0000000000000000     
   25.310179430836644        0.0000000000000000        0.0000000000000000     
   23.705850727159874        0.0000000000000000        0.0000000000000000     
   22.302448545391432        0.0000000000000000        0.0000000000000000     
   21.067359026378782        0.0000000000000000        0.0000000000000000     
   19.974360337453945        0.0000000000000000        0.0000000000000000     
   19.002223538341951        0.0000000000000000        0.0000000000000000     
   18.133636606734132        0.0000000000000000        0.0000000000000000     
   17.354378660946789        0.0000000000000000        0.0000000000000000     
   16.652684851516455       -0.0000000000000000        0.0000000000000000     
   16.018755714055875       -0.0000000000000000        0.0000000000000000     
   15.444375937919228       -0.0000000000000000        0.0000000000000000     
   14.922616240515666       -0.0000000000000000        0.0000000000000000     
   14.447598657215631       -0.0000000000000000        0.0000000000000000     
   14.014310498058771       -0.0000000000000000        0.0000000000000000     
   13.618455887434720       -0.0000000000000000        0.0000000000000000     
   13.256336517894434       -0.0000000000000000        0.0000000000000000     
   12.924755264133445       -0.0000000000000000        0.0000000000000000     
   12.620937803979476       -0.0000000000000000        0.0000000000000000     
   12.342468516453886       -0.0000000000000000        0.0000000000000000     
   12.087237772257859       -0.0000000000000000        0.0000000000000000     
   11.853398371889080       -0.0000000000000000        0.0000000000000000     
   11.639329373902239       -0.0000000000000000        0.0000000000000000     
   11.443605929252017       -0.0000000000000000        0.0000000000000000     
   11.264974025588739       -0.0000000000000000        0.0000000000000000     
   11.102329268758456       -0.0000000000000000        0.0000000000000000     
   10.954699003123912       -0.0000000000000000        0.0000000000000000     
   10.821227209256129       -0.0000000000000000        0.0000000000000000     
   10.701161725738704       -0.0000000000000000        0.0000000000000000     
   10.593843427836147       -0.0000000000000000        0.0000000000000000     
   10.498697064581986       -0.0000000000000000        0.0000000000000000     
   10.415223511244379       -0.0000000000000000        0.0000000000000000     
   10.342993239049388       -0.0000000000000000        0.0000000000000000     
   10.281640840747052       -0.0000000000000000        0.0000000000000000     
   10.230860480855950       -0.0000000000000000        0.0000000000000000     
   10.190402164603858       -0.0000000000000000        0.0000000000000000     
   10.160068740795381       -0.0000000000000000        0.0000000000000000     
   10.139713571964160       -0.0000000000000000        0.0000000000000000     
   10.129238820927558       -0.0000000000000000        0.0000000000000000     
   10.128594316851983       -0.0000000000000000        0.0000000000000000     
   10.137776976665673       -0.0000000000000000        0.0000000000000000     
   10.156830769567758       -0.0000000000000000        0.0000000000000000     
   10.185847223883872       -0.0000000000000000        0.0000000000000000     
   10.224966486994830       -0.0000000000000000        0.0000000000000000     
   10.274378960900638       -0.0000000000000000        0.0000000000000000     
   10.334327548578988       -0.0000000000000000        0.0000000000000000     
   10.405110560095194       -0.0000000000000000        0.0000000000000000     
   10.487085342915931       -0.0000000000000000        0.0000000000000000     
   10.580672718658031       -0.0000000000000000        0.0000000000000000     
   10.686362329264856       -0.0000000000000000        0.0000000000000000     
   10.804719020206671       -0.0000000000000000        0.0000000000000000     
   10.936390417814462       -0.0000000000000000        0.0000000000000000     
   11.082115893623392       -0.0000000000000000        0.0000000000000000     
   11.242737152328790       -0.0000000000000000        0.0000000000000000     
   11.419210733833927       -0.0000000000000000        0.0000000000000000     
   11.612622786718608       -0.0000000000000000        0.0000000000000000     
   11.824206553953763       -0.0000000000000000        0.0000000000000000     
   12.055363116632796       -0.0000000000000000        0.0000000000000000     
   12.307686074208474       -0.0000000000000000        0.0000000000000000     
   12.582991008586653       -0.0000000000000000       -0.0000000000000000     
   12.883350795588115       -0.0000000000000000       -0.0000000000000000     
   13.211138105688665       -0.0000000000000000       -0.0000000000000000     
   13.569076796717932       -0.0000000000000000       -0.0000000000000000     
   13.960304371607855       -0.0000000000000000       -0.0000000000000000     
   14.388448291452852       -0.0000000000000000       -0.0000000000000000     
   14.857719748814304       -0.0000000000000000       -0.0000000000000000     
   15.373029587948222       -0.0000000000000000       -0.0000000000000000     
   15.940132502995345       -0.0000000000000000       -0.0000000000000000     
   16.565807583179357       -0.0000000000000000       -0.0000000000000000     
   17.258085884429065       -0.0000000000000000       -0.0000000000000000     
   18.026539230243383       -0.0000000000000000       -0.0000000000000000     
   18.882649196900331       -0.0000000000000000       -0.0000000000000000     
   19.840281612851051       -0.0000000000000000       -0.0000000000000000     
   20.916300336613769       -0.0000000000000000       -0.0000000000000000     
   22.131364916540122       -0.0000000000000000       -0.0000000000000000     
   23.510969832284871       -0.0000000000000000       -0.0000000000000000     
   25.086796676139222       -0.0000000000000000       -0.0000000000000000     
   26.898458939908672       -0.0000000000000000       -0.0000000000000000     
   28.995705296207198       -0.0000000000000000       -0.0000000000000000     
   31.441067686733710       -0.0000000000000000       -0.0000000000000000     
   34.312685350305685       -0.0000000000000000       -0.0000000000000000     
   37.706336821139821       -0.0000000000000000       -0.0000000000000000     
   41.733936320483323       -0.0000000000000000       -0.0000000000000000     
   46.511514351351131       -0.0000000000000000       -0.0000000000000000     
   52.120516707787701       -0.0000000000000000       -0.0000000000000000     
   58.510356983446961       -0.0000000000000000       -0.0000000000000000     
   65.300145794514023       -0.0000000000000000       -0.0000000000000000     
   71.504812062044181       -0.0000000000000000       -0.0000000000000000     
   75.494669005885356       -0.0000000000000000       -0.0000000000000000     
   75.762953626852621       -0.0000000000000000       -0.0000000000000000     
   72.193997012388380       -0.0000000000000000       -0.0000000000000000     
   66.177588273115575       -0.0000000000000000       -0.0000000000000000     
   59.392698188205181       -0.0000000000000000       -0.0000000000000000     
   52.918437290352031       -0.0000000000000000       -0.0000000000000000     
   47.199464057939217       -0.0000000000000000       -0.0000000000000000     
   42.315891271848109       -0.0000000000000000       -0.0000000000000000     
   38.196283879987966       -0.0000000000000000       -0.0000000000000000     
   34.726084302936961       -0.0000000000000000       -0.0000000000000000     
   31.791796010963083       -0.0000000000000000       -0.0000000000000000     
   29.295307319118137       -0.0000000000000000       -0.0000000000000000     
   27.156242518469146       -0.0000000000000000       -0.0000000000000000     
   25.310179430825343       -0.0000000000000000       -0.0000000000000000     
   23.705850727150008       -0.0000000000000000       -0.0000000000000000     
   22.302448545382799       -0.0000000000000000       -0.0000000000000000     
   21.067359026371147       -0.0000000000000000       -0.0000000000000000     
   19.974360337447152       -0.0000000000000000       -0.0000000000000000     
   19.002223538335908       -0.0000000000000000       -0.0000000000000000     
   18.133636606728711       -0.0000000000000000       -0.0000000000000000     
   17.354378660941922       -0.0000000000000000       -0.0000000000000000     
   16.652684851512060        0.0000000000000000       -0.0000000000000000     
   16.018755714051910        0.0000000000000000       -0.0000000000000000     
   15.444375937915620        0.0000000000000000       -0.0000000000000000     
   14.922616240512392        0.0000000000000000       -0.0000000000000000     
   14.447598657212639        0.0000000000000000       -0.0000000000000000     
   14.014310498056050        0.0000000000000000       -0.0000000000000000     
   13.618455887432228        0.0000000000000000       -0.0000000000000000     
   13.256336517892153        0.0000000000000000       -0.0000000000000000     
   12.924755264131354        0.0000000000000000       -0.0000000000000000     
   12.620937803977565        0.0000000000000000       -0.0000000000000000     
   12.342468516452133        0.0000000000000000       -0.0000000000000000     
   12.087237772256245        0.0000000000000000       -0.0000000000000000     
   11.853398371887607        0.0000000000000000       -0.0000000000000000     
   11.639329373900889        0.0000000000000000       -0.0000000000000000     
   11.443605929250785        0.0000000000000000       -0.0000000000000000     
   11.264974025587613        0.0000000000000000       -0.0000000000000000     
   11.102329268757435        0.0000000000000000       -0.0000000000000000     
   10.954699003122986        0.0000000000000000       -0.0000000000000000     
   10.821227209255296        0.0000000000000000       -0.0000000000000000     
   10.701161725737958        0.0000000000000000       -0.0000000000000000     
   10.593843427835480        0.0000000000000000       -0.0000000000000000     
   10.498697064581396        0.0000000000000000       -0.0000000000000000     
   10.415223511243866        0.0000000000000000       -0.0000000000000000     
   10.342993239048949        0.0000000000000000       -0.0000000000000000     
   10.281640840746689        0.0000000000000000       -0.0000000000000000     
   10.230860480855648        0.0000000000000000       -0.0000000000000000     
   10.190402164603622        0.0000000000000000       -0.0000000000000000     
   10.160068740795214        0.0000000000000000       -0.0000000000000000     
   10.139713571964061        0.0000000000000000       -0.0000000000000000     
   10.129238820927524        0.0000000000000000       -0.0000000000000000     
   10.128594316852013        0.0000000000000000       -0.0000000000000000     
   10.137776976665766        0.0000000000000000       -0.0000000000000000     
   10.156830769567916        0.0000000000000000       -0.0000000000000000     
   10.185847223884096        0.0000000000000000       -0.0000000000000000     
   10.224966486995127        0.0000000000000000       -0.0000000000000000     
   10.274378960900995        0.0000000000000000       -0.0000000000000000     
   10.334327548579420        0.0000000000000000       -0.0000000000000000     
   10.405110560095700        0.0000000000000000       -0.0000000000000000     
   10.487085342916512        0.0000000000000000       -0.0000000000000000     
   10.580672718658684        0.0000000000000000       -0.0000000000000000     
   10.686362329265593        0.0000000000000000       -0.0000000000000000     
   10.804719020207486        0.0000000000000000       -0.0000000000000000     
   10.936390417815375        0.0000000000000000       -0.0000000000000000     
   11.082115893624403        0.0000000000000000       -0.0000000000000000     
   11.242737152329896        0.0000000000000000       -0.0000000000000000     
   11.419210733835143        0.0000000000000000       -0.0000000000000000     
   11.612622786719939        0.0000000000000000       -0.0000000000000000     
   11.824206553955221        0.0000000000000000       -0.0000000000000000     
   12.055363116634387        0.0000000000000000       -0.0000000000000000     
   12.307686074210212        0.0000000000000000       -0.0000000000000000     
   12.582991008588547        0.0000000000000000        0.0000000000000000     
   15.239729371636288       0.47892778966174615        0.0000000000000000     
   15.610460343959408       0.49033640896281694        1.5409442438807932E-002
   16.017900447433590       0.50238948994624799        3.1607667591701097E-002
   16.466248511838455       0.51517614428075453        4.8698483594167841E-002
   16.960426023820286       0.52879997367843368        6.6802971997119348E-002
   17.506233459754956       0.54338222237049738        8.6063289172459714E-002
   18.110549246469510       0.55906578178510946       0.10664750158681580     
   18.781585413272474       0.57602032749013776       0.12875579788114327     
   19.529219524782299       0.59444897779686579       0.15262855596344937     
   20.365430554430311       0.61459702274857153       0.17855694117594903     
   21.304878329475763       0.63676350796949954       0.20689700558166416     
   22.365684234008981       0.66131681242545026       0.23808870268785029     
   23.570498581417532       0.68871590182579823       0.27268191563723498     
   24.947983463797073       0.71953978554747366       0.31137266984084072     
   26.534909210139048       0.75452905046994512       0.35505442028817907     
   28.379175736615377       0.79464552897718921       0.40489212034087152     
   30.544258912001720       0.84115977756178373       0.46243150095206259     
   33.115904268414631       0.89578216165550273       0.52976409361616128     
   36.212451328971717       0.96086386381514377       0.60978275028997275     
   40.001162015995519        1.0397123698403397       0.70658779689891393     
   44.724669455838040        1.1370971391582683       0.82614943007178387     
   50.744580583612702        1.2600702250489295       0.97741065605421718     
   58.613151814285551        1.4192796163124364        1.1741302100659667     
   69.183101557668749        1.6308664003174982        1.4378021401804719     
   83.720877164078715        1.9179416512753940        1.8010670930585895     
   103.68409761987904        2.3040395898901234        2.3040395898903618     
   128.40887647099061        2.7624292733489311        2.9416883926639374     
   147.18336728026208        3.0588475467250413        3.4695814870760708     
   141.26317961514550        2.8297636558024455        3.4205966606015297     
   117.05764866256304        2.2546918677730257        2.9067312410023081     
   93.179700329567410        1.7212057072335116        2.3690364168483145     
   75.157326548990085        1.3275926775782048        1.9534933026663857     
   62.159094578670611        1.0466991947983773        1.6493340162346943     
   52.653814196250863       0.84231733269354314        1.4242808264521440     
   45.512697873236924       0.68904946263485733        1.2533763195756618     
   39.999168425734247       0.57067718478054086        1.1200170381025938     
   35.637196558929425       0.47684897147072208        1.0133556466342331     
   32.113108737008723       0.40079970466708725       0.92619347000217100     
   29.214607372621138       0.33797736927102562       0.85363339233667390     
   26.794037817303899       0.28522971338336606       0.79225600683404196     
   24.746053276576994       0.24031511674032921       0.73961387852626870     
   22.993734563070941       0.20160098745857485       0.69391515031144235     
   21.479743717102668       0.16787267211804155       0.65382089026996104     
   20.160541757363003       0.13820913317838451       0.61831211848860057     
   19.002517623128831       0.11190003134554789       0.58660050704597155     
   17.979338402302602        8.8389144564025829E-002  0.55806709537228605     
   17.070098181389778        6.7234943815501394E-002  0.53221938271654823     
   16.258000491811448        4.8082595720231117E-002  0.50866073113522847     
   15.529404448277818        3.0643732323613400E-002  0.48706817760185001     
   14.873123366687031        1.4681600244555519E-002  0.46717609481031891     
   14.279901642844582       -4.6407381189104940E-014  0.44876398810095053     
   13.742019463771076       -1.3565061712135621E-002  0.43164726262349001     
   13.252990513101311       -2.6151749419935911E-002  0.41567015389998674     
   12.807328228556239       -3.7877326045197418E-002  0.40070025486266242     
   12.400363216767850       -4.8841999343713416E-002  0.38662423534764223     
   12.028099280939992       -5.9131953711861425E-002  0.37334446231368451     
   11.687098902518047       -6.8821761382814886E-002  0.36077630754405393     
   11.374391412848126       -7.7976316138861426E-002  0.34884598517437132     
   11.087398805756960       -8.6652396270459953E-002  0.33748880123675662     
   10.823875384335004       -9.4899937181871133E-002  0.32664772630434236     
   10.581858344979443      -0.10276307478542457       0.31627222349647682     
   10.359627074780539      -0.11028100659735650       0.30631727978133860     
   10.155669441000294      -0.11748870683348385       0.29674260022726634     
   9.9686537302161806      -0.12441752381314863       0.28751193368575162     
   9.7974051826369468      -0.13109568191479404       0.27859250510264993     
   9.6408862877227453      -0.13754870568582761       0.26995453479755160     
   9.4981801775967369      -0.14379978013197658       0.26157082902048284     
   9.3684765872442473      -0.14987005843413567       0.25341642917914692     
   9.2510599542976593      -0.15577892617053493       0.24546830954135859     
   9.1452993130791462      -0.16154422941580404       0.23770511511385256     
   9.0506397025866363      -0.16718247273937212       0.23010693289806661     
   8.9665948600795335      -0.17270899205331317       0.22265509091449270     
   8.8927410137469707      -0.17813810640344152       0.21533198033686790     
   8.8287116218392701      -0.18348325211087782       0.20812089683702434     
   8.7741929333186182      -0.18875710211896252       0.20100589784977493     
   8.7289202678629945      -0.19397167295497428       0.19397167295491402     
   8.6926749319736629      -0.19913842135646345       0.18700342496348124     
   8.6652817038087679      -0.20426833232173561       0.18008675960580678     
   8.6466068328454568      -0.20937200011033189       0.17320758196336669     
   8.6365565120855887      -0.21445970353231467       0.16635199797573463     
   8.6350757906957814      -0.21954147671704655       0.15950621949597757     
   8.6421479040685814      -0.22462717643697708       0.15265647146867153     
   8.6577940066132584      -0.22972654697517067       0.14578889986857091     
   8.6820733003992139      -0.23484928346353157       0.13888947906762522     
   8.7150835603224284      -0.24000509457944430       0.13194391729496099     
   8.7569620639750276      -0.24520376547029588       0.12493755881892474     
   8.8078869420899331      -0.25045522177716795       0.11785528141137369     
   8.8680789735356296      -0.25576959565072921       0.11068138755001511     
   8.9378038575902057      -0.26115729469446985       0.10339948767132609     
   9.0173750058949924      -0.26662907483402920        9.5992373599621275E-002
   9.1071569073755594      -0.27219611819825890        8.8441880040698445E-002
   9.2075691318698585      -0.27787011721037019        8.0728731732801276E-002
   9.3190910526287531      -0.28366336622933364        7.2832373482643639E-002
   9.4422673847433671      -0.28958886225685787        6.4730779866403867E-002
   9.5777146564965854      -0.29566041643894386        5.6400240827858966E-002
   9.7261287543507375      -0.30189277834952688        4.7815118736848253E-002
   9.8882937106460478      -0.30830177535461389        3.8947571654317815E-002
   10.065091937167882      -0.31490446972749009        2.9767236551937751E-002
   10.257516148860288      -0.32171933662923041        2.0240865013027482E-002
   10.466683271731243      -0.32876646659544945        1.0331902445293721E-002
   10.693850689380184      -0.33606779679235788       -6.9506585932279618E-014
   10.940435255977681      -0.34364737603539613       -1.0799553864459740E-002
   11.208035592826560      -0.35153166941311764       -2.2116498010320739E-002
   11.498458294267841      -0.35974990933453782       -3.4006378696414506E-002
   11.813748800655524      -0.36833450091738695       -4.6531468561231408E-002
   12.156227855889133      -0.37732149083698024       -5.9761853148718888E-002
   12.528534659269596      -0.38675111000686752       -7.3776719953253189E-002
   12.933678050572013      -0.39666840165034112       -8.8665892697426724E-002
   13.375097335937138      -0.40712394723155854      -0.10453166290981446     
   13.856734669178062      -0.41817470295714387      -0.12149098201504416     
   14.383121238517678      -0.42988495844716118      -0.13967809011385535     
   14.959479845820479      -0.44232742551810339      -0.15924767210844532     
   15.591846745098056      -0.45558445677703441      -0.18037864681104490     
   16.287215710800481      -0.46974937740840156      -0.20327870777641571     
   17.053707006317179      -0.48492788321096614      -0.22818974080308660     
   17.900762793464978      -0.50123940353748875      -0.25539423239190856     
   18.839367782587985      -0.51881823222686974      -0.28522273680931270     
   19.882288151414148      -0.53781406403920029      -0.31806235083240830     
   21.044310411721888      -0.55839129005199784      -0.35436588824776061     
   22.342440458336377      -0.58072592260348144      -0.39466092946232550     
   23.795983623537659      -0.60499820861718179      -0.43955692792767170     
   25.426355869273156      -0.63137764848746458      -0.48974670566666439     
   27.256352954736073      -0.65999498348490349      -0.54599533431990876     
   29.308397918430742      -0.69089243378966436      -0.60910361495233434     
   31.600964441759771      -0.72393897408084928      -0.67982394705965665     
   34.141933800427147      -0.75869269210376522      -0.75869269210415780     
   36.917227535099066      -0.79419143626614774      -0.84572798013608974     
   39.873214294306592      -0.82866757282369308      -0.93993885791686727     
   42.893498622937621      -0.85923638278602921       -1.0386383667059351     
   45.777027555953104      -0.88172872888237686       -1.1367178278175092     
   48.235778489109315      -0.89100626997764687       -1.2263649210243843     
   49.938616317076495      -0.88212479601310234       -1.2980072203108430     
   50.611522287355214      -0.85224921606009874       -1.3429298783674715     
   50.152325575653691      -0.80230034143007822       -1.3566157895639008     
   48.678098142296967      -0.73697273364116722       -1.3405484259244311     
   46.465811530145402      -0.66293824487350017       -1.3010895638907767     
   43.836963696518659      -0.58656721261755396       -1.2465187776405124     
   41.065235046909009      -0.51253007653879645       -1.1843871253959966     
   38.339922293511961      -0.44354613120536901       -1.1202696483954624     
   35.770947862507271      -0.38079132663159998       -1.0576885987642628     
   33.410129166217821      -0.32445412612457686      -0.99856712254317659     
   31.272700362673145      -0.27418805137170071      -0.94376146307536146     
   29.353401098267547      -0.22940841115303290      -0.89348677020017475     
   27.636857275778397      -0.18946247247852407      -0.84760637765666691     
   26.103686449681042      -0.15371664901892873      -0.80581089363206770     
   24.733830321030933      -0.12159524755287147      -0.76772217841571999     
   23.508228173481559       -9.2593164002220299E-002 -0.73295036468453467     
   22.409550976105063       -6.6275639516453100E-002 -0.70112303106763818     
   21.422428882779005       -4.2272269911558795E-002 -0.67189848976453637     
   20.533420937645637       -2.0269009435700404E-002 -0.64497033812223103     
   19.730865309677753        1.9264177165673707E-013 -0.62006742248750202     
   19.004684460056030        1.8759958694693653E-002 -0.59695156493070212     
   18.346183596333780        3.6202002540539548E-002 -0.57541435281544129     
   17.747860865716927        5.2488817388012726E-002 -0.55527368747395567     
   17.203237007682805        6.7759345105648891E-002 -0.53637044635964160     
   16.706706583998741        8.2132694229536535E-002 -0.51856542259500304     
   16.253410131724614        9.5711375686466191E-002 -0.50173660214846771     
   15.839125346239957       0.10858397610332812      -0.48577678445880246     
   15.460174973233388       0.12082736732593663      -0.47059152557203837     
   15.113349070873440       0.13250853566831947      -0.45609737137117462     
   14.795839477769617       0.14368610022922190      -0.44222034519589137     
   14.505184572200767       0.15441157716939871      -0.42889465506909402     
   14.239222673238030       0.16473043632551065      -0.41606158863468978     
   13.996052685640157       0.17468298783699329      -0.40366856754371711     
   13.774000815310213       0.18430512936005899      -0.39166833675751195     
   13.571592377023837       0.19362897868977721      -0.38001826774646857     
   13.387527881802614       0.20268341197142334      -0.36867975771160560     
   13.220662730422470       0.21149452394905716      -0.35761770970178491     
   13.069989955534245       0.22008602369803162      -0.34680008085091679     
   12.934625551197840       0.22847957687536202      -0.33619748794929566     
   12.813796008506047       0.23669510358127532      -0.32578286123307831     
   12.706827742233671       0.24475103936360681      -0.31553113866865234     
   12.613138148527392       0.25266456563964584      -0.30541899416454932     
   12.532228079605632       0.26045181479863549      -0.29542459409834276     
   12.463675559986324       0.26812805443573245      -0.28552737733056732     
   12.407130601336895       0.27570785451816948      -0.27570785451796975     
   12.362311000840387       0.28320524076776032      -0.26594742305582492     