 VARIABLES = "x_1", "x_2", "x_3"
 ZONE F = POINT , I =         201  , J =         101
   8230.0238514714874        0.0000000000000000        0.0000000000000000     
   8230.0238514714874        0.0000000000000000        0.0000000000000000     
   8230.0238514714874        0.0000000000000000        0.0000000000000000     
   8230.0238514714874        0.0000000000000000        0.0000000000000000     
   8230.0238514714874        0.0000000000000000        0.0000000000000000     
   8230.0238514714874        0.0000000000000000        0.0000000000000000     
   8230.0238514714874        0.0000000000000000        0.0000000000000000     
   8230.0238514714874        0.0000000000000000        0.0000000000000000     
   8230.0238514714874        0.0000000000000000        0.0000000000000000     
   8230.0238514714874        0.0000000000000000        0.0000000000000000     
   8230.0238514714874        0.0000000000000000        0.0000000000000000     
   8230.0238514714874        0.0000000000000000        0.0000000000000000     
   8230.0238514714874        0.0000000000000000        0.0000000000000000     
   8230.0238514714874        0.0000000000000000        0.0000000000000000     
   8230.0238514714874        0.0000000000000000        0.0000000000000000     
   8230.0238514714874        0.0000000000000000        0.0000000000000000     
   8230.0238514714874        0.0000000000000000        0.0000000000000000     
   8230.0238514714874        0.0000000000000000        0.0000000000000000     
   8230.0238514714874        0.0000000000000000        0.0000000000000000     
   8230.0238514714874        0.0000000000000000        0.0000000000000000     
   8230.0238514714874        0.0000000000000000        0.0000000000000000     
   8230.0238514714874        0.0000000000000000        0.0000000000000000     
   8230.0238514714874        0.0000000000000000        0.0000000000000000     
   8230.0238514714874        0.0000000000000000        0.0000000000000000     
   8230.0238514714874        0.0000000000000000        0.0000000000000000     
   8230.0238514714874        0.0000000000000000        0.0000000000000000     
   8230.0238514714874        0.0000000000000000        0.0000000000000000     
   8230.0238514714874        0.0000000000000000        0.0000000000000000     
   8230.0238514714874        0.0000000000000000        0.0000000000000000     
   8230.0238514714874        0.0000000000000000        0.0000000000000000     
   8230.0238514714874        0.0000000000000000        0.0000000000000000     
   8230.0238514714874        0.0000000000000000        0.0000000000000000     
   8230.0238514714874        0.0000000000000000        0.0000000000000000     
   8230.0238514714874        0.0000000000000000        0.0000000000000000     
   8230.0238514714874        0.0000000000000000        0.0000000000000000     
   8230.0238514714874        0.0000000000000000        0.0000000000000000     
   8230.0238514714874        0.0000000000000000        0.0000000000000000     
   8230.0238514714874        0.0000000000000000        0.0000000000000000     
   8230.0238514714874        0.0000000000000000        0.0000000000000000     
   8230.0238514714874        0.0000000000000000        0.0000000000000000     
   8230.0238514714874        0.0000000000000000        0.0000000000000000     
   8230.0238514714874        0.0000000000000000        0.0000000000000000     
   8230.0238514714874        0.0000000000000000        0.0000000000000000     
   8230.0238514714874        0.0000000000000000        0.0000000000000000     
   8230.0238514714874        0.0000000000000000        0.0000000000000000     
   8230.0238514714874        0.0000000000000000        0.0000000000000000     
   8230.0238514714874        0.0000000000000000        0.0000000000000000     
   8230.0238514714874        0.0000000000000000        0.0000000000000000     
   8230.0238514714874        0.0000000000000000        0.0000000000000000     
   8230.0238514714874        0.0000000000000000        0.0000000000000000     
   8230.0238514714874       -0.0000000000000000        0.0000000000000000     
   8230.0238514714874       -0.0000000000000000        0.0000000000000000     
   8230.0238514714874       -0.0000000000000000        0.0000000000000000     
   8230.0238514714874       -0.0000000000000000        0.0000000000000000     
   8230.0238514714874       -0.0000000000000000        0.0000000000000000     
   8230.0238514714874       -0.0000000000000000        0.0000000000000000     
   8230.0238514714874       -0.0000000000000000        0.0000000000000000     
   8230.0238514714874       -0.0000000000000000        0.0000000000000000     
   8230.0238514714874       -0.0000000000000000        0.0000000000000000     
   8230.0238514714874       -0.0000000000000000        0.0000000000000000     
   8230.0238514714874       -0.0000000000000000        0.0000000000000000     
   8230.0238514714874       -0.0000000000000000        0.0000000000000000     
   8230.0238514714874       -0.0000000000000000        0.0000000000000000     
   8230.0238514714874       -0.0000000000000000        0.0000000000000000     
   8230.0238514714874       -0.0000000000000000        0.0000000000000000     
   8230.0238514714874       -0.0000000000000000        0.0000000000000000     
   8230.0238514714874       -0.0000000000000000        0.0000000000000000     
   8230.0238514714874       -0.0000000000000000        0.0000000000000000     
   8230.0238514714874       -0.0000000000000000        0.0000000000000000     
   8230.0238514714874       -0.0000000000000000        0.0000000000000000     
   8230.0238514714874       -0.0000000000000000        0.0000000000000000     
   8230.0238514714874       -0.0000000000000000        0.0000000000000000     
   8230.0238514714874       -0.0000000000000000        0.0000000000000000     
   8230.0238514714874       -0.0000000000000000        0.0000000000000000     
   8230.0238514714874       -0.0000000000000000        0.0000000000000000     
   8230.0238514714874       -0.0000000000000000        0.0000000000000000     
   8230.0238514714874       -0.0000000000000000        0.0000000000000000     
   8230.0238514714874       -0.0000000000000000        0.0000000000000000     
   8230.0238514714874       -0.0000000000000000        0.0000000000000000     
   8230.0238514714874       -0.0000000000000000        0.0000000000000000     
   8230.0238514714874       -0.0000000000000000        0.0000000000000000     
   8230.0238514714874       -0.0000000000000000        0.0000000000000000     
   8230.0238514714874       -0.0000000000000000        0.0000000000000000     
   8230.0238514714874       -0.0000000000000000        0.0000000000000000     
   8230.0238514714874       -0.0000000000000000        0.0000000000000000     
   8230.0238514714874       -0.0000000000000000        0.0000000000000000     
   8230.0238514714874       -0.0000000000000000        0.0000000000000000     
   8230.0238514714874       -0.0000000000000000        0.0000000000000000     
   8230.0238514714874       -0.0000000000000000        0.0000000000000000     
   8230.0238514714874       -0.0000000000000000        0.0000000000000000     
   8230.0238514714874       -0.0000000000000000        0.0000000000000000     
   8230.0238514714874       -0.0000000000000000        0.0000000000000000     
   8230.0238514714874       -0.0000000000000000        0.0000000000000000     
   8230.0238514714874       -0.0000000000000000        0.0000000000000000     
   8230.0238514714874       -0.0000000000000000        0.0000000000000000     
   8230.0238514714874       -0.0000000000000000        0.0000000000000000     
   8230.0238514714874       -0.0000000000000000        0.0000000000000000     
   8230.0238514714874       -0.0000000000000000        0.0000000000000000     
   8230.0238514714874       -0.0000000000000000        0.0000000000000000     
   8230.0238514714874       -0.0000000000000000        0.0000000000000000     
   8230.0238514714874       -0.0000000000000000       -0.0000000000000000     
   8230.0238514714874       -0.0000000000000000       -0.0000000000000000     
   8230.0238514714874       -0.0000000000000000       -0.0000000000000000     
   8230.0238514714874       -0.0000000000000000       -0.0000000000000000     
   8230.0238514714874       -0.0000000000000000       -0.0000000000000000     
   8230.0238514714874       -0.0000000000000000       -0.0000000000000000     
   8230.0238514714874       -0.0000000000000000       -0.0000000000000000     
   8230.0238514714874       -0.0000000000000000       -0.0000000000000000     
   8230.0238514714874       -0.0000000000000000       -0.0000000000000000     
   8230.0238514714874       -0.0000000000000000       -0.0000000000000000     
   8230.0238514714874       -0.0000000000000000       -0.0000000000000000     
   8230.0238514714874       -0.0000000000000000       -0.0000000000000000     
   8230.0238514714874       -0.0000000000000000       -0.0000000000000000     
   8230.0238514714874       -0.0000000000000000       -0.0000000000000000     
   8230.0238514714874       -0.0000000000000000       -0.0000000000000000     
   8230.0238514714874       -0.0000000000000000       -0.0000000000000000     
   8230.0238514714874       -0.0000000000000000       -0.0000000000000000     
   8230.0238514714874       -0.0000000000000000       -0.0000000000000000     
   8230.0238514714874       -0.0000000000000000       -0.0000000000000000     
   8230.0238514714874       -0.0000000000000000       -0.0000000000000000     
   8230.0238514714874       -0.0000000000000000       -0.0000000000000000     
   8230.0238514714874       -0.0000000000000000       -0.0000000000000000     
   8230.0238514714874       -0.0000000000000000       -0.0000000000000000     
   8230.0238514714874       -0.0000000000000000       -0.0000000000000000     
   8230.0238514714874       -0.0000000000000000       -0.0000000000000000     
   8230.0238514714874       -0.0000000000000000       -0.0000000000000000     
   8230.0238514714874       -0.0000000000000000       -0.0000000000000000     
   8230.0238514714874       -0.0000000000000000       -0.0000000000000000     
   8230.0238514714874       -0.0000000000000000       -0.0000000000000000     
   8230.0238514714874       -0.0000000000000000       -0.0000000000000000     
   8230.0238514714874       -0.0000000000000000       -0.0000000000000000     
   8230.0238514714874       -0.0000000000000000       -0.0000000000000000     
   8230.0238514714874       -0.0000000000000000       -0.0000000000000000     
   8230.0238514714874       -0.0000000000000000       -0.0000000000000000     
   8230.0238514714874       -0.0000000000000000       -0.0000000000000000     
   8230.0238514714874       -0.0000000000000000       -0.0000000000000000     
   8230.0238514714874       -0.0000000000000000       -0.0000000000000000     
   8230.0238514714874       -0.0000000000000000       -0.0000000000000000     
   8230.0238514714874       -0.0000000000000000       -0.0000000000000000     
   8230.0238514714874       -0.0000000000000000       -0.0000000000000000     
   8230.0238514714874       -0.0000000000000000       -0.0000000000000000     
   8230.0238514714874       -0.0000000000000000       -0.0000000000000000     
   8230.0238514714874       -0.0000000000000000       -0.0000000000000000     
   8230.0238514714874       -0.0000000000000000       -0.0000000000000000     
   8230.0238514714874       -0.0000000000000000       -0.0000000000000000     
   8230.0238514714874       -0.0000000000000000       -0.0000000000000000     
   8230.0238514714874       -0.0000000000000000       -0.0000000000000000     
   8230.0238514714874       -0.0000000000000000       -0.0000000000000000     
   8230.0238514714874       -0.0000000000000000       -0.0000000000000000     
   8230.0238514714874       -0.0000000000000000       -0.0000000000000000     
   8230.0238514714874        0.0000000000000000       -0.0000000000000000     
   8230.0238514714874        0.0000000000000000       -0.0000000000000000     
   8230.0238514714874        0.0000000000000000       -0.0000000000000000     
   8230.0238514714874        0.0000000000000000       -0.0000000000000000     
   8230.0238514714874        0.0000000000000000       -0.0000000000000000     
   8230.0238514714874        0.0000000000000000       -0.0000000000000000     
   8230.0238514714874        0.0000000000000000       -0.0000000000000000     
   8230.0238514714874        0.0000000000000000       -0.0000000000000000     
   8230.0238514714874        0.0000000000000000       -0.0000000000000000     
   8230.0238514714874        0.0000000000000000       -0.0000000000000000     
   8230.0238514714874        0.0000000000000000       -0.0000000000000000     
   8230.0238514714874        0.0000000000000000       -0.0000000000000000     
   8230.0238514714874        0.0000000000000000       -0.0000000000000000     
   8230.0238514714874        0.0000000000000000       -0.0000000000000000     
   8230.0238514714874        0.0000000000000000       -0.0000000000000000     
   8230.0238514714874        0.0000000000000000       -0.0000000000000000     
   8230.0238514714874        0.0000000000000000       -0.0000000000000000     
   8230.0238514714874        0.0000000000000000       -0.0000000000000000     
   8230.0238514714874        0.0000000000000000       -0.0000000000000000     
   8230.0238514714874        0.0000000000000000       -0.0000000000000000     
   8230.0238514714874        0.0000000000000000       -0.0000000000000000     
   8230.0238514714874        0.0000000000000000       -0.0000000000000000     
   8230.0238514714874        0.0000000000000000       -0.0000000000000000     
   8230.0238514714874        0.0000000000000000       -0.0000000000000000     
   8230.0238514714874        0.0000000000000000       -0.0000000000000000     
   8230.0238514714874        0.0000000000000000       -0.0000000000000000     
   8230.0238514714874        0.0000000000000000       -0.0000000000000000     
   8230.0238514714874        0.0000000000000000       -0.0000000000000000     
   8230.0238514714874        0.0000000000000000       -0.0000000000000000     
   8230.0238514714874        0.0000000000000000       -0.0000000000000000     
   8230.0238514714874        0.0000000000000000       -0.0000000000000000     
   8230.0238514714874        0.0000000000000000       -0.0000000000000000     
   8230.0238514714874        0.0000000000000000       -0.0000000000000000     
   8230.0238514714874        0.0000000000000000       -0.0000000000000000     
   8230.0238514714874        0.0000000000000000       -0.0000000000000000     
   8230.0238514714874        0.0000000000000000       -0.0000000000000000     
   8230.0238514714874        0.0000000000000000       -0.0000000000000000     
   8230.0238514714874        0.0000000000000000       -0.0000000000000000     
   8230.0238514714874        0.0000000000000000       -0.0000000000000000     
   8230.0238514714874        0.0000000000000000       -0.0000000000000000     
   8230.0238514714874        0.0000000000000000       -0.0000000000000000     
   8230.0238514714874        0.0000000000000000       -0.0000000000000000     
   8230.0238514714874        0.0000000000000000       -0.0000000000000000     
   8230.0238514714874        0.0000000000000000       -0.0000000000000000     
   8230.0238514714874        0.0000000000000000       -0.0000000000000000     
   8230.0238514714874        0.0000000000000000       -0.0000000000000000     
   8230.0238514714874        0.0000000000000000       -0.0000000000000000     
   8230.0238514714874        0.0000000000000000       -0.0000000000000000     
   8230.0238514714874        0.0000000000000000       -0.0000000000000000     
   8230.0238514714874        0.0000000000000000       -0.0000000000000000     
   8230.0238514714874        0.0000000000000000        0.0000000000000000     
   7477.7300440568970        234.99713376490740        0.0000000000000000     
   7481.4385752238986        234.99766464418869        7.3850991286749759     
   7485.7238691780312        234.78414095883318        14.771366104859965     
   7490.5881182326648        234.35649610000229        22.153211299110556     
   7496.0332968381153        233.71477841968743        29.525042691430976     
   7502.0611411505197        232.85915069104647        36.881266256650719     
   7508.6731277987210        231.78988970640788        44.216286232616632     
   7515.8704518905834        230.50738602780896        51.524505280615095     
   7523.6540043018058        229.01214390462746        58.800324548966273     
   7532.0243482924816        227.30478137243594        66.038143652273874     
   7540.9816954987964        225.38603054663648        73.232360580358815     
   7550.5258813497348        223.25673812372511        80.377371552444757     
   7560.6563399612642        220.91786610218591        87.467570833686437     
   7571.3720785634041        218.37049273402368        94.497350532629753     
   7582.6716515187081        215.61581371680901        101.46110039965259     
   7594.5531339940480        212.65514363483160        108.35320764784819     
   7607.0140953514638        209.48991765653713        115.16805681917066     
   7620.0515723275994        206.12169349385570        121.90002971994313     
   7633.6620420757918        202.55215362732605        128.54350545103861     
   7647.8413951492148        198.78310779906846        135.09286055914873     
   7662.5849085085947        194.81649577367861        141.54246933656648     
   7677.8872186430171        190.65439036499035        147.88670429779103     
   7693.7422948977992        186.29900072440617        154.11993686202143     
   7710.1434131091355        181.75267588411768        160.23653827121416     
   7727.0831296510441        177.01790854604033        166.23088077383284     
   7744.5532560061956        172.09733910467676        172.09733910469461     
   7762.5448339784662        166.99375988941094        177.83029229141036     
   7781.0481116713045        161.71011960892341        183.42412581780488     
   7800.0525203623238        156.24952797753033        188.87323417437315     
   7819.5466524108588        150.61526050028311        194.17202382527327     
   7839.5182403412882        144.81076339064981        199.31491662054535     
   7859.9541372511521        138.83965859154634        204.29635368118872     
   7880.8402986985466        132.70574886740553        209.11079978338211     
   7902.1617662288363        126.41302293190206        213.75274826651264     
   7923.9026527055294        119.96566057289949        218.21672648775299     
   7946.0461296144276        113.36803773318530        222.49730184369355     
   7968.5744165139058        106.62473150263746        226.58908837699090     
   7991.4687728068320        99.740524974648707        230.48675398311499     
   8014.7094920115815        92.720411916956706        234.18502822908059     
   8038.2758987104207        85.569601204522613        237.67871079251327     
   8062.1463483530879        78.293520959803345        240.96268052554029     
   8086.2982300918020        70.897822343710246        244.03190514381129     
   8110.7079728206363        63.388382938777518        246.88145153645053     
   8135.3510545877480        55.771309664621718        249.50649668794264     
   8160.2020155423106        48.052941164689642        251.90233919785825     
   8185.2344745701257        40.239849602617774        254.06441137897716     
   8210.4211497616998        32.338841806291732        255.98829190877547     
   8235.7338828446973        24.356959697945577        257.66971900344691     
   8261.1436676987560        16.301479949409693        259.10460407767420     
   8286.6206830545161        8.1799128029401817        260.28904584727826     
   8312.1343294607559       -2.7013098267075285E-011   261.21934482572311     
   8337.6532705832469       -8.2302882373311732        261.89201815927515     
   8363.1454788767915       -16.502757223726068        262.30381473948614     
   8388.5782856476180       -24.808992875866686        262.45173052563467     
   8413.9184354972786       -33.140367868331765        262.33302400391023     
   8439.1321451111853       -41.488048919230238        261.94523170450918     
   8464.1851663255038       -49.843005238135540        261.28618369252769     
   8489.0428533750055       -58.196018162642254        260.35401894364196     
   8513.6702341923556       -66.537692002762697        259.14720051115461     
   8538.0320855961418       -74.858466104712519        257.66453038713064     
   8562.0930121709989       -83.148628137414249        255.90516395711865     
   8585.8175286090009       -91.398328596329975        253.86862394543857     
   8609.1701452472735       -99.597596510084102        251.55481374628118     
   8632.1154565027628       -107.73635632581957        248.96403003497173     
   8654.6182318719984       -115.80444593943989        246.09697455376056     
   8676.6435091316362       -123.79163582690686        242.95476496747443     
   8698.1566893450236       -131.68764922269307        239.53894468631898     
   8719.1236332516582       -139.48218328143977        235.85149155612001     
   8739.5107585901151       -147.16493114894806        231.89482532031667     
   8759.2851378818541       -154.72560485896292        227.67181376311117     
   8778.4145961831691       -162.15395896290795        223.18577744930320     
   8796.8678082958977       -169.43981479091232        218.44049298347846     
   8814.6143949149537       -176.57308523427395        213.44019471934959     
   8831.6250171822321       -183.54379993202187        208.18957485909476     
   8847.8714691124387       -190.34213073760606        202.69378189244918     
   8863.3267673569790       -196.95841733604684        196.95841733598564     
   8877.9652377776092       -203.38319287722209        190.98953074438631     
   8891.7625983116850       -209.60720948743827        184.79361297743202     
   8904.6960376262978       -215.62146351909738        178.37758771881821     
   8916.7442890784841       -221.41722039718888        171.74880125559790     
   8927.8876995236606       -226.98603892154688        164.91501053992653     
   8938.1082925437804       -232.31979488534648        157.88436956769056     
   8947.3898257004639       -237.41070387316714        150.66541412139460     
   8955.7178414560422       -242.25134310612273        143.26704493721246     
   8963.0797114468260       -246.83467220701061        135.69850936822570     
   8969.4646738375377       -251.15405276512288        127.96938162744112     
   8974.8638635329589       -255.20326658821529        120.08954170504671     
   8979.2703350725824       -258.97653253807880        112.06915306441925     
   8982.6790780850151       -262.46852185608293        103.91863923050475     
   8985.0870252312852       -265.67437189586866        95.648659392258068     
   8986.4930526189055       -268.58969819192299        87.270083147752246     
   8986.8979727212773       -271.21060480493770        78.793964526285137     
   8986.3045198889813       -273.53369289749901        70.231515426249828     
   8984.7173285904446       -275.55606750662878        61.594078610670415     
   8982.1429045682635       -277.27534249283724        52.893100404100075     
   8978.5895891443870       -278.68964365852452        44.140103235043689     
   8974.0675169512615       -279.79761004160974        35.346658167206648     
   8968.5885674067158       -280.59839340304427        26.524357560723921     
   8962.1663102876828       -281.09165593923575        17.684788001137207     
   8954.8159457911224       -281.27756626224681        8.8395036293260425     
   8946.5542394996828       -281.15679370180669       -5.8149721658553222E-011
   8937.3994526945080       -280.73050099359955       -8.8223114107668046     
   8927.3712684779293       -280.00033542785263       -17.616127934412955     
   8916.4907141847143       -278.96841854088308       -26.370279572243831     
   8904.7800805717889       -277.63733443989435       -35.073751893286754     
   8892.2628382832081       -276.01011685790644       -43.715707882510905     
   8878.9635520895772       -274.09023504121109       -52.285508662658273     
   8864.9077933994031       -271.88157857616329       -60.772733023717919     
   8850.1220515339937       -269.38844126543506       -69.167195704512437     
   8834.6336442480315       -266.61550416608731       -77.458964381433759     
   8818.4706279648472       -263.56781790298470       -85.638375329874094     
   8801.6617081791792       -260.25078437121550       -93.696047734252033     
   8784.2361504611836       -256.67013794034557       -101.62289663262628     
   8766.2236924736480       -252.83192627157069       -109.41014449163096     
   8747.6544573908286       -248.74249085622006       -117.04933141677388     
   8728.5588690815330       -244.40844738066130       -124.53232401194015     
   8708.9675693921308       -239.83666601854884       -131.85132291017581     
   8688.9113378370239       -235.03425174662510       -138.99886900543913     
   8668.4210139751558       -230.00852477500521       -145.96784842195831     
   8647.5274227217942       -224.76700117713764       -152.75149626409490     
   8626.2613028153337       -219.31737379852524       -159.34339919516049     
   8604.6532386295003       -213.66749351688532       -165.73749689845971     
   8582.7335954922692       -207.82535091981077       -171.92808247793292     
   8560.5324586446695       -201.79905845925234       -177.90980185915427     
   8538.0795759449156       -195.59683313532469       -183.67765225411839     
   8515.4043043969432       -189.22697975514436       -189.22697975524230     
   8492.5355605570949       -182.69787480567572       -194.55347612534612     
   8469.5017748486171       -176.01795097296448       -199.65317485108787     
   8446.3308497911239       -169.19568233372382       -204.52244652744994     
   8423.0501221308205       -162.23957023904947       -209.15799364044580     
   8399.6863288379209       -155.15812990413099       -213.55684481428443     
   8376.2655769194807       -147.95987771221110       -217.71634858783267     
   8352.8133169794019       -140.65331923577764       -221.63416678339786     
   8329.3543204425441       -133.24693797304627       -225.30826752867617     
   8305.9126603464738       -125.74918479326355       -228.73691799019551     
   8282.5116955926151       -118.16846808019633       -231.91867687380366     
   8259.1740585381103       -110.51314455943132       -234.85238674472242     
   8235.9216458010051       -102.79151079174568       -237.53716621649153     
   8212.7756121434613       -95.011795311866834       -239.97240205475674     
   8189.7563672917422       -87.182151389376855       -242.15774123840472     
   8166.8835755464324       -79.310650386361388       -244.09308301700690     
   8144.1761580324765       -71.405275684607119       -245.77857099997502     
   8121.6522974356521       -63.473917153745354       -247.21458530926074     
   8099.3294450702524       -55.524366130660290       -248.40173482390369     
   8077.2243301215631       -47.564310879761543       -249.34084954125186     
   8055.3529709065806       -39.601332503291715       -250.03297307629359     
   8033.7306879967800       -31.642901270733642       -250.47935531725440     
   8012.3721190479237       -23.696373336526154       -250.68144525246100     
   7991.2912351835257       -15.768987815714478       -250.64088398046559     
   7970.5013587808744       -7.8678641878032947       -250.35949791257920     
   7950.0151825110825        7.7619758962406369E-011  -249.83929217429056     
   7929.8447894876435        7.8277311585357037       -249.08244420956129     
   7910.0016743814849        15.608581436460446       -248.09129758969794     
   7890.4967653639278        23.335930282049922       -246.86835602640733     
   7871.3404467430819        31.003285808172308       -245.41627758675892     
   7852.5425821630761        38.604285984344294       -243.73786910609684     
   7834.1125382399787        46.132699675989826       -241.83608079347474     
   7816.0592085123753        53.582427549939034       -239.71400102292196     
   7798.3910375893784        60.947502863419210       -237.37485130279686     
   7781.1160453830680        68.222092152033341       -234.82198141461868     
   7764.2418513172115        75.400495830497889       -232.05886471211326     
   7747.7756984086209        82.477148718177375       -229.08909357073441     
   7731.7244771223404        89.446620499780622       -225.91637497763165     
   7716.0947489063037        96.303616129938717       -222.54452625191311     
   7700.8927693160667        103.04297618881587       -218.97747088510278     
   7686.1245106446977        109.65967719441346       -215.21923449187761     
   7671.7956839776753        116.14883187581179       -211.27394086151367     
   7657.9117605972096        122.50568941029465       -207.14580810092448     
   7644.4779926651699        128.72563562609230       -202.83914486076353     
   7631.4994331181351        134.80419317139976       -198.35834663672884     
   7618.9809547128898        140.73702164935477       -193.70789213898888     
   7606.9272681649763        146.51991771783182       -188.89233972347787     
   7595.3429393274546        152.14881515218937       -183.91632387971896     
   7584.2324053614111        157.61978486854670       -178.78455177077339     
   7573.5999898540631        162.92903490471483       -173.50179982189897     
   7563.4499168445445        168.07291035560959       -168.07291035548786     
   7553.7863237216825        173.04789325979479       -162.50278827086208     