 VARIABLES = "x_1", "x_2", "x_3"
 ZONE F = POINT , I =         201  , J =         101
   1054.2732995936058        0.0000000000000000        0.0000000000000000     
   1053.9841520445129        0.0000000000000000        0.0000000000000000     
   1053.6670578794658        0.0000000000000000        0.0000000000000000     
   1053.3233426550391        0.0000000000000000        0.0000000000000000     
   1052.9544392585312        0.0000000000000000        0.0000000000000000     
   1052.5618810121857        0.0000000000000000        0.0000000000000000     
   1052.1472943694339        0.0000000000000000        0.0000000000000000     
   1051.7123912528411        0.0000000000000000        0.0000000000000000     
   1051.2589610845089        0.0000000000000000        0.0000000000000000     
   1050.7888625601681        0.0000000000000000        0.0000000000000000     
   1050.3040152181707        0.0000000000000000        0.0000000000000000     
   1049.8063908540382        0.0000000000000000        0.0000000000000000     
   1049.2980048301949        0.0000000000000000        0.0000000000000000     
   1048.7809073290689        0.0000000000000000        0.0000000000000000     
   1048.2571745958808        0.0000000000000000        0.0000000000000000     
   1047.7289002152652        0.0000000000000000        0.0000000000000000     
   1047.1981864633813        0.0000000000000000        0.0000000000000000     
   1046.6671357744567        0.0000000000000000        0.0000000000000000     
   1046.1378423578074        0.0000000000000000        0.0000000000000000     
   1045.6123839983584        0.0000000000000000        0.0000000000000000     
   1045.0928140705673        0.0000000000000000        0.0000000000000000     
   1044.5811537925256        0.0000000000000000        0.0000000000000000     
   1044.0793847438974        0.0000000000000000        0.0000000000000000     
   1043.5894416682816        0.0000000000000000        0.0000000000000000     
   1043.1132055776320        0.0000000000000000        0.0000000000000000     
   1042.6524971735375        0.0000000000000000        0.0000000000000000     
   1042.2090705974808        0.0000000000000000        0.0000000000000000     
   1041.7846075197353        0.0000000000000000        0.0000000000000000     
   1041.3807115742534        0.0000000000000000        0.0000000000000000     
   1040.9989031448572        0.0000000000000000        0.0000000000000000     
   1040.6406145062131        0.0000000000000000        0.0000000000000000     
   1040.3071853214753        0.0000000000000000        0.0000000000000000     
   1039.9998584971354        0.0000000000000000        0.0000000000000000     
   1039.7197763945062        0.0000000000000000        0.0000000000000000     
   1039.4679773963751        0.0000000000000000        0.0000000000000000     
   1039.2453928267132        0.0000000000000000        0.0000000000000000     
   1039.0528442208745        0.0000000000000000        0.0000000000000000     
   1038.8910409434670        0.0000000000000000        0.0000000000000000     
   1038.7605781510160        0.0000000000000000        0.0000000000000000     
   1038.6619350966232        0.0000000000000000        0.0000000000000000     
   1038.5954737740724        0.0000000000000000        0.0000000000000000     
   1038.5614378991759        0.0000000000000000        0.0000000000000000     
   1038.5599522266241        0.0000000000000000        0.0000000000000000     
   1038.5910222011196        0.0000000000000000        0.0000000000000000     
   1038.6545339421666        0.0000000000000000        0.0000000000000000     
   1038.7502545624795        0.0000000000000000        0.0000000000000000     
   1038.8778328206004        0.0000000000000000        0.0000000000000000     
   1039.0368001088800        0.0000000000000000        0.0000000000000000     
   1039.2265717785267        0.0000000000000000        0.0000000000000000     
   1039.4464488038782        0.0000000000000000        0.0000000000000000     
   1039.6956197884301       -0.0000000000000000        0.0000000000000000     
   1039.9731633153920       -0.0000000000000000        0.0000000000000000     
   1040.2780506456545       -0.0000000000000000        0.0000000000000000     
   1040.6091487659960       -0.0000000000000000        0.0000000000000000     
   1040.9652237901280       -0.0000000000000000        0.0000000000000000     
   1041.3449447147391       -0.0000000000000000        0.0000000000000000     
   1041.7468875320760       -0.0000000000000000        0.0000000000000000     
   1042.1695396997152       -0.0000000000000000        0.0000000000000000     
   1042.6113049671126       -0.0000000000000000        0.0000000000000000     
   1043.0705085571658       -0.0000000000000000        0.0000000000000000     
   1043.5454026994687       -0.0000000000000000        0.0000000000000000     
   1044.0341725101302       -0.0000000000000000        0.0000000000000000     
   1044.5349422109823       -0.0000000000000000        0.0000000000000000     
   1045.0457816787575       -0.0000000000000000        0.0000000000000000     
   1045.5647133123364       -0.0000000000000000        0.0000000000000000     
   1046.0897192035159       -0.0000000000000000        0.0000000000000000     
   1046.6187485939363       -0.0000000000000000        0.0000000000000000     
   1047.1497255978443       -0.0000000000000000        0.0000000000000000     
   1047.6805571673215       -0.0000000000000000        0.0000000000000000     
   1048.2091412734926       -0.0000000000000000        0.0000000000000000     
   1048.7333752740853       -0.0000000000000000        0.0000000000000000     
   1049.2511644346109       -0.0000000000000000        0.0000000000000000     
   1049.7604305673851       -0.0000000000000000        0.0000000000000000     
   1050.2591207497103       -0.0000000000000000        0.0000000000000000     
   1050.7452160797902       -0.0000000000000000        0.0000000000000000     
   1051.2167404264653       -0.0000000000000000        0.0000000000000000     
   1051.6717691266108       -0.0000000000000000        0.0000000000000000     
   1052.1084375821929       -0.0000000000000000        0.0000000000000000     
   1052.5249497074508       -0.0000000000000000        0.0000000000000000     
   1052.9195861756311       -0.0000000000000000        0.0000000000000000     
   1053.2907124140947       -0.0000000000000000        0.0000000000000000     
   1053.6367862965380       -0.0000000000000000        0.0000000000000000     
   1053.9563654815172       -0.0000000000000000        0.0000000000000000     
   1054.2481143474604       -0.0000000000000000        0.0000000000000000     
   1054.5108104759329       -0.0000000000000000        0.0000000000000000     
   1054.7433506370301       -0.0000000000000000        0.0000000000000000     
   1054.9447562334872       -0.0000000000000000        0.0000000000000000     
   1055.1141781633034       -0.0000000000000000        0.0000000000000000     
   1055.2509010644285       -0.0000000000000000        0.0000000000000000     
   1055.3543469092583       -0.0000000000000000        0.0000000000000000     
   1055.4240779213371       -0.0000000000000000        0.0000000000000000     
   1055.4597987916463       -0.0000000000000000        0.0000000000000000     
   1055.4613581771891       -0.0000000000000000        0.0000000000000000     
   1055.4287494701057       -0.0000000000000000        0.0000000000000000     
   1055.3621108312718       -0.0000000000000000        0.0000000000000000     
   1055.2617244881135       -0.0000000000000000        0.0000000000000000     
   1055.1280153021637       -0.0000000000000000        0.0000000000000000     
   1054.9615486176085       -0.0000000000000000        0.0000000000000000     
   1054.7630274076189       -0.0000000000000000        0.0000000000000000     
   1054.5332887406114       -0.0000000000000000        0.0000000000000000     
   1054.2732995936042       -0.0000000000000000       -0.0000000000000000     
   1053.9841520445109       -0.0000000000000000       -0.0000000000000000     
   1053.6670578794638       -0.0000000000000000       -0.0000000000000000     
   1053.3233426550369       -0.0000000000000000       -0.0000000000000000     
   1052.9544392585290       -0.0000000000000000       -0.0000000000000000     
   1052.5618810121830       -0.0000000000000000       -0.0000000000000000     
   1052.1472943694309       -0.0000000000000000       -0.0000000000000000     
   1051.7123912528382       -0.0000000000000000       -0.0000000000000000     
   1051.2589610845059       -0.0000000000000000       -0.0000000000000000     
   1050.7888625601649       -0.0000000000000000       -0.0000000000000000     
   1050.3040152181677       -0.0000000000000000       -0.0000000000000000     
   1049.8063908540348       -0.0000000000000000       -0.0000000000000000     
   1049.2980048301918       -0.0000000000000000       -0.0000000000000000     
   1048.7809073290657       -0.0000000000000000       -0.0000000000000000     
   1048.2571745958771       -0.0000000000000000       -0.0000000000000000     
   1047.7289002152618       -0.0000000000000000       -0.0000000000000000     
   1047.1981864633783       -0.0000000000000000       -0.0000000000000000     
   1046.6671357744531       -0.0000000000000000       -0.0000000000000000     
   1046.1378423578037       -0.0000000000000000       -0.0000000000000000     
   1045.6123839983552       -0.0000000000000000       -0.0000000000000000     
   1045.0928140705637       -0.0000000000000000       -0.0000000000000000     
   1044.5811537925222       -0.0000000000000000       -0.0000000000000000     
   1044.0793847438943       -0.0000000000000000       -0.0000000000000000     
   1043.5894416682784       -0.0000000000000000       -0.0000000000000000     
   1043.1132055776293       -0.0000000000000000       -0.0000000000000000     
   1042.6524971735348       -0.0000000000000000       -0.0000000000000000     
   1042.2090705974781       -0.0000000000000000       -0.0000000000000000     
   1041.7846075197326       -0.0000000000000000       -0.0000000000000000     
   1041.3807115742504       -0.0000000000000000       -0.0000000000000000     
   1040.9989031448545       -0.0000000000000000       -0.0000000000000000     
   1040.6406145062108       -0.0000000000000000       -0.0000000000000000     
   1040.3071853214731       -0.0000000000000000       -0.0000000000000000     
   1039.9998584971333       -0.0000000000000000       -0.0000000000000000     
   1039.7197763945044       -0.0000000000000000       -0.0000000000000000     
   1039.4679773963735       -0.0000000000000000       -0.0000000000000000     
   1039.2453928267118       -0.0000000000000000       -0.0000000000000000     
   1039.0528442208733       -0.0000000000000000       -0.0000000000000000     
   1038.8910409434661       -0.0000000000000000       -0.0000000000000000     
   1038.7605781510154       -0.0000000000000000       -0.0000000000000000     
   1038.6619350966228       -0.0000000000000000       -0.0000000000000000     
   1038.5954737740722       -0.0000000000000000       -0.0000000000000000     
   1038.5614378991756       -0.0000000000000000       -0.0000000000000000     
   1038.5599522266239       -0.0000000000000000       -0.0000000000000000     
   1038.5910222011203       -0.0000000000000000       -0.0000000000000000     
   1038.6545339421671       -0.0000000000000000       -0.0000000000000000     
   1038.7502545624804       -0.0000000000000000       -0.0000000000000000     
   1038.8778328206013       -0.0000000000000000       -0.0000000000000000     
   1039.0368001088812       -0.0000000000000000       -0.0000000000000000     
   1039.2265717785281       -0.0000000000000000       -0.0000000000000000     
   1039.4464488038795       -0.0000000000000000       -0.0000000000000000     
   1039.6956197884317        0.0000000000000000       -0.0000000000000000     
   1039.9731633153940        0.0000000000000000       -0.0000000000000000     
   1040.2780506456565        0.0000000000000000       -0.0000000000000000     
   1040.6091487659983        0.0000000000000000       -0.0000000000000000     
   1040.9652237901303        0.0000000000000000       -0.0000000000000000     
   1041.3449447147420        0.0000000000000000       -0.0000000000000000     
   1041.7468875320787        0.0000000000000000       -0.0000000000000000     
   1042.1695396997179        0.0000000000000000       -0.0000000000000000     
   1042.6113049671155        0.0000000000000000       -0.0000000000000000     
   1043.0705085571690        0.0000000000000000       -0.0000000000000000     
   1043.5454026994723        0.0000000000000000       -0.0000000000000000     
   1044.0341725101334        0.0000000000000000       -0.0000000000000000     
   1044.5349422109859        0.0000000000000000       -0.0000000000000000     
   1045.0457816787609        0.0000000000000000       -0.0000000000000000     
   1045.5647133123398        0.0000000000000000       -0.0000000000000000     
   1046.0897192035193        0.0000000000000000       -0.0000000000000000     
   1046.6187485939397        0.0000000000000000       -0.0000000000000000     
   1047.1497255978477        0.0000000000000000       -0.0000000000000000     
   1047.6805571673249        0.0000000000000000       -0.0000000000000000     
   1048.2091412734960        0.0000000000000000       -0.0000000000000000     
   1048.7333752740890        0.0000000000000000       -0.0000000000000000     
   1049.2511644346143        0.0000000000000000       -0.0000000000000000     
   1049.7604305673885        0.0000000000000000       -0.0000000000000000     
   1050.2591207497130        0.0000000000000000       -0.0000000000000000     
   1050.7452160797936        0.0000000000000000       -0.0000000000000000     
   1051.2167404264685        0.0000000000000000       -0.0000000000000000     
   1051.6717691266138        0.0000000000000000       -0.0000000000000000     
   1052.1084375821958        0.0000000000000000       -0.0000000000000000     
   1052.5249497074535        0.0000000000000000       -0.0000000000000000     
   1052.9195861756336        0.0000000000000000       -0.0000000000000000     
   1053.2907124140972        0.0000000000000000       -0.0000000000000000     
   1053.6367862965405        0.0000000000000000       -0.0000000000000000     
   1053.9563654815192        0.0000000000000000       -0.0000000000000000     
   1054.2481143474622        0.0000000000000000       -0.0000000000000000     
   1054.5108104759345        0.0000000000000000       -0.0000000000000000     
   1054.7433506370317        0.0000000000000000       -0.0000000000000000     
   1054.9447562334883        0.0000000000000000       -0.0000000000000000     
   1055.1141781633046        0.0000000000000000       -0.0000000000000000     
   1055.2509010644292        0.0000000000000000       -0.0000000000000000     
   1055.3543469092590        0.0000000000000000       -0.0000000000000000     
   1055.4240779213376        0.0000000000000000       -0.0000000000000000     
   1055.4597987916463        0.0000000000000000       -0.0000000000000000     
   1055.4613581771891        0.0000000000000000       -0.0000000000000000     
   1055.4287494701055        0.0000000000000000       -0.0000000000000000     
   1055.3621108312714        0.0000000000000000       -0.0000000000000000     
   1055.2617244881126        0.0000000000000000       -0.0000000000000000     
   1055.1280153021626        0.0000000000000000       -0.0000000000000000     
   1054.9615486176076        0.0000000000000000       -0.0000000000000000     
   1054.7630274076175        0.0000000000000000       -0.0000000000000000     
   1054.5332887406096        0.0000000000000000       -0.0000000000000000     
   1054.2732995936021        0.0000000000000000        0.0000000000000000     
   1085.3995714037442        34.110055694275623        0.0000000000000000     
   1085.0083202423459        34.080934944899241        1.0710365285846171     
   1084.5647370791589        34.016563335688957        2.1401407633777141     
   1084.0698419489370        33.917071086639716        3.2061071697737997     
   1083.5247362017556        33.782633241565293        4.2677390596800597     
   1082.9306013699836        33.613469065074241        5.3238504852382551     
   1082.2886983286216        33.409841358965551        6.3732680937269333     
   1081.6003667019274        33.172055698813480        7.4148329408246143     
   1080.8670244602183        32.900459591299466        8.4474022590880988     
   1080.0901676431208        32.595441552747310        9.4698511781092307     
   1079.2713701394814        32.257430109340355        10.481074392381812     
   1078.4122834497416        31.886892719651005        11.479987772462984     
   1077.5146363539268        31.484334620399096        12.465529914576679     
   1076.5802344074968        31.050297596770928        13.436663623406154     
   1075.6109591881780        30.585358679170319        14.392377322483762     
   1074.6087672194790        30.090128768922870        15.331686386331844     
   1073.5756885008332        29.565251196199942        16.253634388360055     
   1072.5138245800410        29.011400214248578        17.157294258498247     
   1071.4253461108308        28.429279434885579        18.041769344654867     
   1070.3124898466824        27.819620211113353        18.906194372347084     
   1069.1775550313998        27.183179973613875        19.749736297255843     
   1068.0228991570707        26.520740528750441        20.571595046016643     
   1066.8509330707648        25.833106326525844        21.371004141260890     
   1065.6641154223923        25.121102707685708        22.147231207763099     
   1064.4649464573365        24.385574139793157        22.899578357514677     
   1063.2559611685501        23.627382452613691        23.627382452616139     
   1062.0397218335916        22.847405083520520        24.330015246038791     
   1060.8188099723250        22.046533343844597        25.006883401529780     
   1059.5958177705970        21.225670717141593        25.657428395197023     
   1058.3733390239290        20.385731200222001        26.281126302587921     
   1057.1539596630648        19.527637697490970        26.877487476341422     
   1055.9402479299024        18.652320478670479        27.446056120721142     
   1054.7347442779524        17.760715709337731        27.986409770504626     
   1053.5399510758689        16.853764062917566        28.498158682786048     
   1052.3583221958356        15.932409421827765        28.980945151226774     
   1051.1922525706680        14.997597674410455        29.434442753142836     
   1050.0440678043999        14.050275613107967        29.858355540532834     
   1048.9160139210164        13.091389938079276        30.252417186715665     
   1047.8102473348138        12.121886369122539        30.616390100651781     
   1046.7288251238383        11.142708867394655        30.950064521262398     
   1045.6736956849747        10.154798967020819        31.253257604133047     
   1044.6466898456665        9.1590952152876781        31.525812512893186     
   1043.6495125030797        8.1565327187346721        31.767597527304936     
   1042.6837348568247        7.1480427911185087        31.978505179677121     
   1041.7507872962701        6.1345526979444447        32.158451430653834     
   1040.8519529981031        5.1169854910520840        32.307374894719800     
   1039.9883622841874        4.0962599256274315        32.425236124928965     
   1039.1609877840226        3.0732904510010921        32.512016965410567     
   1038.3706404402969        2.0489872656951893        32.567719979152763     
   1037.6179663901778        1.0242564264094158        32.592367957421551     
   1036.9034447491542       -3.3697692477372297E-012   32.586003515956328     
   1036.2273863184548       -1.0228837530228230        32.548688781809595     
   1035.5899332313445       -2.0435001752171895        32.480505173380507     
   1034.9910595479298       -3.0609580012911528        32.381553274845963     
   1034.4305728025104       -4.0743691515115383        32.251952804833834     
   1033.9081165019691       -5.0828485415140694        32.091842677824644     
   1033.4231735681954       -6.0855139202645088        31.901381155426204     
   1032.9750707120675       -7.0814857475735433        31.680746083353416     
   1032.5629837210549       -8.0698871220495221        31.430135208677207     
   1032.1859436370585       -9.0498437697216101        31.149766570696865     
   1031.8428437956165       -10.020484102783566        30.839878957650274     
   1031.5324476921380       -10.980939357002276        30.500732420422128     
   1031.2533976353102       -11.930343815313792        30.132608833452103     
   1031.0042241423359       -12.867835124001660        29.735812492196256     
   1030.7833560251609       -13.792554706629796        29.310670735766749     
   1030.5891311114237       -14.703648279596294        28.857534582778829     
   1030.4198075385129       -15.600266471799371        28.376779367979108     
   1030.2735755539088       -16.481565549477381        27.868805366924988     
   1030.1485697499943       -17.346708245817418        27.334038395838849     
   1030.0428816568005       -18.194864693439701        26.772930373778706     
   1029.9545726117865       -19.025213456375941        26.185959834452767     
   1029.8816868218264       -19.836942656689395        25.573632375362045     
   1029.8222645292083       -20.629251189453004        24.936481032481574     
   1029.7743551906613       -21.401350018430200        24.275066569384730     
   1029.7360305763927       -22.152463543512230        23.589977670571351     
   1029.7053976948573       -22.881831029777203        22.881831029770094     
   1029.6806114486178       -23.588708086968534        22.151271325139032     
   1029.6598869272013       -24.272368187263716        21.398971074569609     
   1029.6415112444620       -24.932104208436012        20.625630365694629     
   1029.6238548305382       -25.567229988915283        19.831976456688114     
   1029.6053820921818       -26.177081880843925        19.018763245505053     
   1029.5846613599613       -26.761020287008737        18.186770606816903     
   1029.5603740465958       -27.318431167515158        17.336803597530132     
   1029.5313229474691       -27.848727502261152        16.469691533403903     
   1029.4964396220298       -28.351350695660468        15.586286940881656     
   1029.4547908033444       -28.825771910656481        14.687464389794743     
   1029.4055837923272       -29.271493319848055        13.774119214057164     
   1029.3481708030331       -29.688049262504887        12.847166128824721     
   1029.2820522357476       -30.075007297366948        11.907537753817090     
   1029.2068788652423       -30.431969142379245        10.956183053576664     
   1029.1224529423259       -30.758571493888482        9.9940657063460385     
   1029.0287282175971       -31.054486719297039        9.0221624139740673     
   1028.9258089068117       -31.319423418705114        8.0414611657961128     
   1028.8139476274748       -31.553126852647853        7.0529594697735885     
   1028.6935423458699       -31.755379234620516        6.0576625643170816     
   1028.5651323827021       -31.925999888656754        5.0565816241596728     
   1028.4293935336348       -32.064845273752795        4.0507319733973484     
   1028.2871323681657       -32.171808878390934        3.0411313183821509     
   1028.1392797764383       -32.246820989785384        2.0287980125537928     
   1027.9868838385739       -32.289848343731634        1.0147493645429528     
   1027.8311020949468       -32.300893662068738       -6.6805711896256897E-012
   1027.6731932984899       -32.279995085751544       -1.0144397134496446     
   1027.5145087315159       -32.227225512360910       -2.0275651696253427     
   1027.3564831698204       -32.142691847553124       -3.0383789486200929     
   1027.2006255759311       -32.026534180457951       -4.0458921568072865     
   1027.0485096013958       -31.878924893379487       -5.0491256773929454     
   1026.9017639750427       -31.700067716339937       -6.0471113279184774     
   1026.7620628502791       -31.490196737038350       -7.0388929223767889     
   1026.6311161798251       -31.249575376685360       -8.0235272367621153     
   1026.5106601809587       -30.978495341931552       -9.0000848779832676     
   1026.4024479484740       -30.677275562746200       -9.9676510571083767     
   1026.3082402662458       -30.346261125637767       -10.925326268866044     
   1026.2297966617459       -29.985822211056352       -11.872226880194065     
   1026.1688667411063       -29.596353043194778       -12.807485631395796     
   1026.1271818355892       -29.178270859728155       -13.730252054132768     
   1026.1064469836588       -28.732014908315826       -14.639692811048860     
   1026.1083332664027       -28.258045475950858       -15.534991962287675     
   1026.1344705079136       -27.756842956494502       -16.415351164533938     
   1026.1864403465120       -27.228906960989420       -17.279989808487390     
   1026.2657696774374       -26.674755474616521       -18.128145100869826     
   1026.3739244629458       -26.094924063456467       -18.959072097181494     
   1026.5123039016739       -25.489965133545336       -19.772043691470362     
   1026.6822349457070       -24.860447244079833       -20.566350569366570     
   1026.8849671510352       -24.206954476035897       -21.341301130573523     
   1027.1216678450760       -23.530085856916575       -22.096221386908180     
   1027.3934175935942       -22.830454841840851       -22.830454841852664     
   1027.7012059487522       -22.108688850724160       -23.543362357428162     
   1028.0459274600983       -21.365428860880279       -24.234322014037058     
   1028.4283779310272       -20.601329053988934       -24.902728968746484     
   1028.8492509046232       -19.817056516019814       -25.547995317312495     
   1029.3091343647386       -19.013290988375235       -26.169549965071969     
   1029.8085076406105       -18.190724668204254       -26.766838511662218     
   1030.3477385062761       -17.350062055546136       -27.339323154366618     
   1030.9270804693474       -16.492019844670789       -27.886482614729708     
   1031.5466702473536       -15.617326856697188       -28.407812092932073     
   1032.2065254337499       -14.726724010277557       -28.902823254265652     
   1032.9065423597010       -13.820964326835455       -29.371044251893604     
   1033.6464941618754       -12.900812966531916       -29.812019789916725     
   1034.4260290705315       -11.967047290808139       -30.225311230588009     
   1035.2446689361605       -11.020456947009759       -30.610496749316837     
   1036.1018080166807       -10.061843970242929       -30.967171540873242     
   1036.9967120506408       -9.0920228972424280       -31.294948079936010     
   1037.9285176449384       -8.1118208866570267       -31.593456438816737     
   1038.8962320081610       -7.1220778397765470       -31.862344664831138     
   1039.8987330626549       -6.1236465153516253       -32.101279219369104     
   1040.9347699698426       -5.1173926317934999       -32.309945480235854     
   1042.0029641039714       -4.1041949497034214       -32.488048308289954     
   1043.1018105093890       -3.0849453273737795       -32.635312678790520     
   1044.2296798755565       -2.0605487416436175       -32.751484377184930     
   1045.3848210622073       -1.0319232662883004       -32.836330758319733     
   1046.5653642044342        1.0218112725954906E-011  -32.889641567247402     
   1047.7693244239254        1.0342770641140107       -32.911229818935006     
   1048.9946061681139        2.0699512352584999       -32.900932733265357     
   1050.2390081936940        3.1060533960648442       -32.858612720770005     
   1051.5002292047946        4.1416023552740366       -32.784158413557101     
   1052.7758741491784        5.1756052893479136       -32.677485734912786     
   1054.0634611682065        6.2070582795625482       -32.538539000078309     
   1055.3604291881013        7.2349469505626836       -32.367292039756471     
   1056.6641461313534        8.2582472155590416       -32.163749336999324     
   1057.9719177180978        9.2759261324285003       -31.927947167295724     
   1059.2809968180964        10.286942873934105       -31.659954730933613     
   1060.5885933047775        11.290249814119909       -31.359875266078909     
   1061.8918843537622        12.284793731674640       -31.027847130509233     
   1063.1880251196951        13.269517129709635       -30.664044839587639     
   1064.4741597171439        14.243359669983427       -30.268680047872802     
   1065.7474324240709        15.205259718150961       -29.842002461752148     
   1067.0049990200930        16.154155995142393       -29.384300670665066     
   1068.2440381666245        17.088989328317062       -28.895902884856870     
   1069.4617627322157        18.008704494616424       -28.377177568177867     
   1070.6554309640908        18.912252146590355       -27.828533955207053     
   1071.8223574061892        19.798590810917926       -27.250422442934006     
   1072.9599234650216        20.666688947921273       -26.643334848358926     
   1074.0655875273724        21.515527059598444       -26.007804524654716     
   1075.1368945384136        22.344099832909425       -25.344406329952356     
   1076.1714849549928        23.151418304450146       -24.653756444337219     
   1077.1671029967799        23.936512032265838       -23.936512032248501     
   1078.1216041273653        24.698431260389604       -23.193370749125595     