 VARIABLES = "x_1", "x_2", "x_3"
 ZONE F = POINT , I = 201  , J = 101
 136305.535804977146 0.000000000000000000E+00 0.000000000000000000E+00
 136305.535804977146 0.000000000000000000E+00 0.000000000000000000E+00
 136305.535804977146 0.000000000000000000E+00 0.000000000000000000E+00
 136305.535804977146 0.000000000000000000E+00 0.000000000000000000E+00
 136305.535804977146 0.000000000000000000E+00 0.000000000000000000E+00
 136305.535804977146 0.000000000000000000E+00 0.000000000000000000E+00
 136305.535804977146 0.000000000000000000E+00 0.000000000000000000E+00
 136305.535804977146 0.000000000000000000E+00 0.000000000000000000E+00
 136305.535804977146 0.000000000000000000E+00 0.000000000000000000E+00
 136305.535804977146 0.000000000000000000E+00 0.000000000000000000E+00
 136305.535804977146 0.000000000000000000E+00 0.000000000000000000E+00
 136305.535804977146 0.000000000000000000E+00 0.000000000000000000E+00
 136305.535804977146 0.000000000000000000E+00 0.000000000000000000E+00
 136305.535804977146 0.000000000000000000E+00 0.000000000000000000E+00
 136305.535804977146 0.000000000000000000E+00 0.000000000000000000E+00
 136305.535804977146 0.000000000000000000E+00 0.000000000000000000E+00
 136305.535804977146 0.000000000000000000E+00 0.000000000000000000E+00
 136305.535804977146 0.000000000000000000E+00 0.000000000000000000E+00
 136305.535804977146 0.000000000000000000E+00 0.000000000000000000E+00
 136305.535804977146 0.000000000000000000E+00 0.000000000000000000E+00
 136305.535804977146 0.000000000000000000E+00 0.000000000000000000E+00
 136305.535804977146 0.000000000000000000E+00 0.000000000000000000E+00
 136305.535804977146 0.000000000000000000E+00 0.000000000000000000E+00
 136305.535804977146 0.000000000000000000E+00 0.000000000000000000E+00
 136305.535804977146 0.000000000000000000E+00 0.000000000000000000E+00
 136305.535804977146 0.000000000000000000E+00 0.000000000000000000E+00
 136305.535804977146 0.000000000000000000E+00 0.000000000000000000E+00
 136305.535804977146 0.000000000000000000E+00 0.000000000000000000E+00
 136305.535804977146 0.000000000000000000E+00 0.000000000000000000E+00
 136305.535804977146 0.000000000000000000E+00 0.000000000000000000E+00
 136305.535804977146 0.000000000000000000E+00 0.000000000000000000E+00
 136305.535804977146 0.000000000000000000E+00 0.000000000000000000E+00
 136305.535804977146 0.000000000000000000E+00 0.000000000000000000E+00
 136305.535804977146 0.000000000000000000E+00 0.000000000000000000E+00
 136305.535804977146 0.000000000000000000E+00 0.000000000000000000E+00
 136305.535804977146 0.000000000000000000E+00 0.000000000000000000E+00
 136305.535804977146 0.000000000000000000E+00 0.000000000000000000E+00
 136305.535804977146 0.000000000000000000E+00 0.000000000000000000E+00
 136305.535804977146 0.000000000000000000E+00 0.000000000000000000E+00
 136305.535804977146 0.000000000000000000E+00 0.000000000000000000E+00
 136305.535804977146 0.000000000000000000E+00 0.000000000000000000E+00
 136305.535804977146 0.000000000000000000E+00 0.000000000000000000E+00
 136305.535804977146 0.000000000000000000E+00 0.000000000000000000E+00
 136305.535804977146 0.000000000000000000E+00 0.000000000000000000E+00
 136305.535804977146 0.000000000000000000E+00 0.000000000000000000E+00
 136305.535804977146 0.000000000000000000E+00 0.000000000000000000E+00
 136305.535804977146 0.000000000000000000E+00 0.000000000000000000E+00
 136305.535804977146 0.000000000000000000E+00 0.000000000000000000E+00
 136305.535804977146 0.000000000000000000E+00 0.000000000000000000E+00
 136305.535804977146 0.000000000000000000E+00 0.000000000000000000E+00
 136305.535804977146 0.000000000000000000E+00 0.000000000000000000E+00
 136305.535804977146 0.000000000000000000E+00 0.000000000000000000E+00
 136305.535804977146 0.000000000000000000E+00 0.000000000000000000E+00
 136305.535804977146 0.000000000000000000E+00 0.000000000000000000E+00
 136305.535804977146 0.000000000000000000E+00 0.000000000000000000E+00
 136305.535804977146 0.000000000000000000E+00 0.000000000000000000E+00
 136305.535804977146 0.000000000000000000E+00 0.000000000000000000E+00
 136305.535804977146 0.000000000000000000E+00 0.000000000000000000E+00
 136305.535804977146 0.000000000000000000E+00 0.000000000000000000E+00
 136305.535804977146 0.000000000000000000E+00 0.000000000000000000E+00
 136305.535804977146 0.000000000000000000E+00 0.000000000000000000E+00
 136305.535804977146 0.000000000000000000E+00 0.000000000000000000E+00
 136305.535804977146 0.000000000000000000E+00 0.000000000000000000E+00
 136305.535804977146 0.000000000000000000E+00 0.000000000000000000E+00
 136305.535804977146 0.000000000000000000E+00 0.000000000000000000E+00
 136305.535804977146 0.000000000000000000E+00 0.000000000000000000E+00
 136305.535804977146 0.000000000000000000E+00 0.000000000000000000E+00
 136305.535804977146 0.000000000000000000E+00 0.000000000000000000E+00
 136305.535804977146 0.000000000000000000E+00 0.000000000000000000E+00
 136305.535804977146 0.000000000000000000E+00 0.000000000000000000E+00
 136305.535804977146 0.000000000000000000E+00 0.000000000000000000E+00
 136305.535804977146 0.000000000000000000E+00 0.000000000000000000E+00
 136305.535804977146 0.000000000000000000E+00 0.000000000000000000E+00
 136305.535804977146 0.000000000000000000E+00 0.000000000000000000E+00
 136305.535804977146 0.000000000000000000E+00 0.000000000000000000E+00
 136305.535804977146 0.000000000000000000E+00 0.000000000000000000E+00
 136305.535804977146 0.000000000000000000E+00 0.000000000000000000E+00
 136305.535804977146 0.000000000000000000E+00 0.000000000000000000E+00
 136305.535804977146 0.000000000000000000E+00 0.000000000000000000E+00
 136305.535804977146 0.000000000000000000E+00 0.000000000000000000E+00
 136305.535804977146 0.000000000000000000E+00 0.000000000000000000E+00
 136305.535804977146 0.000000000000000000E+00 0.000000000000000000E+00
 136305.535804977146 0.000000000000000000E+00 0.000000000000000000E+00
 136305.535804977146 0.000000000000000000E+00 0.000000000000000000E+00
 136305.535804977146 0.000000000000000000E+00 0.000000000000000000E+00
 136305.535804977146 0.000000000000000000E+00 0.000000000000000000E+00
 136305.535804977146 0.000000000000000000E+00 0.000000000000000000E+00
 136305.535804977146 0.000000000000000000E+00 0.000000000000000000E+00
 136305.535804977146 0.000000000000000000E+00 0.000000000000000000E+00
 136305.535804977146 0.000000000000000000E+00 0.000000000000000000E+00
 136305.535804977146 0.000000000000000000E+00 0.000000000000000000E+00
 136305.535804977146 0.000000000000000000E+00 0.000000000000000000E+00
 136305.535804977146 0.000000000000000000E+00 0.000000000000000000E+00
 136305.535804977146 0.000000000000000000E+00 0.000000000000000000E+00
 136305.535804977146 0.000000000000000000E+00 0.000000000000000000E+00
 136305.535804977146 0.000000000000000000E+00 0.000000000000000000E+00
 136305.535804977146 0.000000000000000000E+00 0.000000000000000000E+00
 136305.535804977146 0.000000000000000000E+00 0.000000000000000000E+00
 136305.535804977146 0.000000000000000000E+00 0.000000000000000000E+00
 136305.535804977146 0.000000000000000000E+00 0.000000000000000000E+00
 136305.535804977146 0.000000000000000000E+00 0.000000000000000000E+00
 136305.535804977146 0.000000000000000000E+00 0.000000000000000000E+00
 136305.535804977146 0.000000000000000000E+00 0.000000000000000000E+00
 136305.535804977146 0.000000000000000000E+00 0.000000000000000000E+00
 136305.535804977146 0.000000000000000000E+00 0.000000000000000000E+00
 136305.535804977146 0.000000000000000000E+00 0.000000000000000000E+00
 136305.535804977146 0.000000000000000000E+00 0.000000000000000000E+00
 136305.535804977146 0.000000000000000000E+00 0.000000000000000000E+00
 136305.535804977146 0.000000000000000000E+00 0.000000000000000000E+00
 136305.535804977146 0.000000000000000000E+00 0.000000000000000000E+00
 136305.535804977146 0.000000000000000000E+00 0.000000000000000000E+00
 136305.535804977146 0.000000000000000000E+00 0.000000000000000000E+00
 136305.535804977146 0.000000000000000000E+00 0.000000000000000000E+00
 136305.535804977146 0.000000000000000000E+00 0.000000000000000000E+00
 136305.535804977146 0.000000000000000000E+00 0.000000000000000000E+00
 136305.535804977146 0.000000000000000000E+00 0.000000000000000000E+00
 136305.535804977146 0.000000000000000000E+00 0.000000000000000000E+00
 136305.535804977146 0.000000000000000000E+00 0.000000000000000000E+00
 136305.535804977146 0.000000000000000000E+00 0.000000000000000000E+00
 136305.535804977146 0.000000000000000000E+00 0.000000000000000000E+00
 136305.535804977146 0.000000000000000000E+00 0.000000000000000000E+00
 136305.535804977146 0.000000000000000000E+00 0.000000000000000000E+00
 136305.535804977146 0.000000000000000000E+00 0.000000000000000000E+00
 136305.535804977146 0.000000000000000000E+00 0.000000000000000000E+00
 136305.535804977146 0.000000000000000000E+00 0.000000000000000000E+00
 136305.535804977146 0.000000000000000000E+00 0.000000000000000000E+00
 136305.535804977146 0.000000000000000000E+00 0.000000000000000000E+00
 136305.535804977146 0.000000000000000000E+00 0.000000000000000000E+00
 136305.535804977146 0.000000000000000000E+00 0.000000000000000000E+00
 136305.535804977146 0.000000000000000000E+00 0.000000000000000000E+00
 136305.535804977146 0.000000000000000000E+00 0.000000000000000000E+00
 136305.535804977146 0.000000000000000000E+00 0.000000000000000000E+00
 136305.535804977146 0.000000000000000000E+00 0.000000000000000000E+00
 136305.535804977146 0.000000000000000000E+00 0.000000000000000000E+00
 136305.535804977146 0.000000000000000000E+00 0.000000000000000000E+00
 136305.535804977146 0.000000000000000000E+00 0.000000000000000000E+00
 136305.535804977146 0.000000000000000000E+00 0.000000000000000000E+00
 136305.535804977146 0.000000000000000000E+00 0.000000000000000000E+00
 136305.535804977146 0.000000000000000000E+00 0.000000000000000000E+00
 136305.535804977146 0.000000000000000000E+00 0.000000000000000000E+00
 136305.535804977146 0.000000000000000000E+00 0.000000000000000000E+00
 136305.535804977146 0.000000000000000000E+00 0.000000000000000000E+00
 136305.535804977146 0.000000000000000000E+00 0.000000000000000000E+00
 136305.535804977146 0.000000000000000000E+00 0.000000000000000000E+00
 136305.535804977146 0.000000000000000000E+00 0.000000000000000000E+00
 136305.535804977146 0.000000000000000000E+00 0.000000000000000000E+00
 136305.535804977146 0.000000000000000000E+00 0.000000000000000000E+00
 136305.535804977146 0.000000000000000000E+00 0.000000000000000000E+00
 136305.535804977146 0.000000000000000000E+00 0.000000000000000000E+00
 136305.535804977146 0.000000000000000000E+00 0.000000000000000000E+00
 136305.535804977146 0.000000000000000000E+00 0.000000000000000000E+00
 136305.535804977146 0.000000000000000000E+00 0.000000000000000000E+00
 136305.535804977146 0.000000000000000000E+00 0.000000000000000000E+00
 136305.535804977146 0.000000000000000000E+00 0.000000000000000000E+00
 136305.535804977146 0.000000000000000000E+00 0.000000000000000000E+00
 136305.535804977146 0.000000000000000000E+00 0.000000000000000000E+00
 136305.535804977146 0.000000000000000000E+00 0.000000000000000000E+00
 136305.535804977146 0.000000000000000000E+00 0.000000000000000000E+00
 136305.535804977146 0.000000000000000000E+00 0.000000000000000000E+00
 136305.535804977146 0.000000000000000000E+00 0.000000000000000000E+00
 136305.535804977146 0.000000000000000000E+00 0.000000000000000000E+00
 136305.535804977146 0.000000000000000000E+00 0.000000000000000000E+00
 136305.535804977146 0.000000000000000000E+00 0.000000000000000000E+00
 136305.535804977146 0.000000000000000000E+00 0.000000000000000000E+00
 136305.535804977146 0.000000000000000000E+00 0.000000000000000000E+00
 136305.535804977146 0.000000000000000000E+00 0.000000000000000000E+00
 136305.535804977146 0.000000000000000000E+00 0.000000000000000000E+00
 136305.535804977146 0.000000000000000000E+00 0.000000000000000000E+00
 136305.535804977146 0.000000000000000000E+00 0.000000000000000000E+00
 136305.535804977146 0.000000000000000000E+00 0.000000000000000000E+00
 136305.535804977146 0.000000000000000000E+00 0.000000000000000000E+00
 136305.535804977146 0.000000000000000000E+00 0.000000000000000000E+00
 136305.535804977146 0.000000000000000000E+00 0.000000000000000000E+00
 136305.535804977146 0.000000000000000000E+00 0.000000000000000000E+00
 136305.535804977146 0.000000000000000000E+00 0.000000000000000000E+00
 136305.535804977146 0.000000000000000000E+00 0.000000000000000000E+00
 136305.535804977146 0.000000000000000000E+00 0.000000000000000000E+00
 136305.535804977146 0.000000000000000000E+00 0.000000000000000000E+00
 136305.535804977146 0.000000000000000000E+00 0.000000000000000000E+00
 136305.535804977146 0.000000000000000000E+00 0.000000000000000000E+00
 136305.535804977146 0.000000000000000000E+00 0.000000000000000000E+00
 136305.535804977146 0.000000000000000000E+00 0.000000000000000000E+00
 136305.535804977146 0.000000000000000000E+00 0.000000000000000000E+00
 136305.535804977146 0.000000000000000000E+00 0.000000000000000000E+00
 136305.535804977146 0.000000000000000000E+00 0.000000000000000000E+00
 136305.535804977146 0.000000000000000000E+00 0.000000000000000000E+00
 136305.535804977146 0.000000000000000000E+00 0.000000000000000000E+00
 136305.535804977146 0.000000000000000000E+00 0.000000000000000000E+00
 136305.535804977146 0.000000000000000000E+00 0.000000000000000000E+00
 136305.535804977146 0.000000000000000000E+00 0.000000000000000000E+00
 136305.535804977146 0.000000000000000000E+00 0.000000000000000000E+00
 136305.535804977146 0.000000000000000000E+00 0.000000000000000000E+00
 136305.535804977146 0.000000000000000000E+00 0.000000000000000000E+00
 136305.535804977146 0.000000000000000000E+00 0.000000000000000000E+00
 136305.535804977146 0.000000000000000000E+00 0.000000000000000000E+00
 136305.535804977146 0.000000000000000000E+00 0.000000000000000000E+00
 136305.535804977146 0.000000000000000000E+00 0.000000000000000000E+00
 136305.535804977146 0.000000000000000000E+00 0.000000000000000000E+00
 136305.535804977146 0.000000000000000000E+00 0.000000000000000000E+00
 136305.535804977146 0.000000000000000000E+00 0.000000000000000000E+00
 136305.535804977146 0.000000000000000000E+00 0.000000000000000000E+00
 136460.885702725296 4288.45609860546028 0.000000000000000000E+00
 136460.885919777589 4286.34001121436449 134.703661544692267
 136460.886567511450 4279.99383722284892 269.274388116564921
 136460.887635711842 4269.42383911866364 403.579375897038005
 136460.889107532508 4254.64044752484915 537.486083247521719
 136460.890959761949 4235.65825092175419 670.862361478291291
 136460.893163189612 4212.49598127152785 803.576585232310777
 136460.895683065988 4185.17649555875960 935.497782356129164
 136460.898479651194 4153.72675326485114 1066.49576313041121
 136460.901508841460 4118.17778979758441 1196.44124873316605
 136460.904722864681 4078.56468590126406 1325.20599880939085
 136460.908071033831 4034.92653307671890 1452.66293802158111
 136460.911500546237 3987.30639504431792 1578.68628145643174
 136460.914957316505 3935.75126528704277 1703.15165876402921
 136460.918386829289 3880.31202071451935 1825.93623690692448
 136460.921734999050 3821.04337149278854 1946.91884139772014
 136460.924949023261 3758.00380708838065 2065.98007590514089
 136460.927978214720 3691.25553857910791 2183.00244011002678
 136460.930774801265 3620.86443728772792 2297.87044569431418
 136460.933294679038 3546.89996979839589 2410.47073034778759
 136460.935498108011 3469.43512941949530 2520.69216967926604
 136460.937350338761 3388.54636416008452 2628.42598692087404
 136460.938822160504 3304.31350129079510 2733.56586031621418
 136460.939890361653 3216.81966856352392 2836.00802808546678
 136460.940538096067 3126.15121216771740 2935.65139086289992
 136460.940755148564 3032.39761150442610 3032.39761150473942
 136460.940538096067 2935.65139086257705 3126.15121216802117
 136460.939890361653 2836.00802808513390 3216.81966856381769
 136460.938822160475 2733.56586031587176 3304.31350129107796
 136460.937350338761 2628.42598692052343 3388.54636416035601
 136460.935498107981 2520.69216967890634 3469.43512941975541
 136460.933294679038 2410.47073034742061 3546.89996979864554
 136460.930774801265 2297.87044569393947 3620.86443728796530
 136460.927978214691 2183.00244010964479 3691.25553857933301
 136460.924949023261 2065.98007590475208 3758.00380708859439
 136460.921734999079 1946.91884139732565 3821.04337149299045
 136460.918386829289 1825.93623690652339 3880.31202071470852
 136460.914957316505 1703.15165876362175 3935.75126528721921
 136460.911500546237 1578.68628145601883 3987.30639504448163
 136460.908071033831 1452.66293802116320 4034.92653307686942
 136460.904722864681 1325.20599880896907 4078.56468590140094
 136460.901508841460 1196.44124873274063 4118.17778979770810
 136460.898479651194 1066.49576312998170 4153.72675326496119
 136460.895683065959 935.497782355696245 4185.17649555885509
 136460.893163189583 803.576585231874219 4212.49598127161062
 136460.890959761979 670.862361477852915 4235.65825092182422
 136460.889107532508 537.486083247081069 4254.64044752490554
 136460.887635711842 403.579375896596105 4269.42383911870547
 136460.886567511450 269.274388116121997 4279.99383722287621
 136460.885919777589 134.703661544248888 4286.34001121437905
 136460.885702725296 -0.443475907509664697E-09 4288.45609860546028
 136460.885919777589 -134.703661545135390 4286.34001121435176
 136460.886567511450 -269.274388117007277 4279.99383722282073
 136460.887635711842 -403.579375897480077 4269.42383911862089
 136460.889107532479 -537.486083247962029 4254.64044752479276
 136460.890959761979 -670.862361478729781 4235.65825092168598
 136460.893163189583 -803.576585232746424 4212.49598127144418
 136460.895683065959 -935.497782356561743 4185.17649555866137
 136460.898479651194 -1066.49576313084094 4153.72675326474109
 136460.901508841460 -1196.44124873359192 4118.17778979746072
 136460.904722864681 -1325.20599880981331 4078.56468590112627
 136460.908071033831 -1452.66293802199857 4034.92653307656883
 136460.911500546266 -1578.68628145684465 3987.30639504415558
 136460.914957316476 -1703.15165876443643 3935.75126528686587
 136460.918386829289 -1825.93623690732602 3880.31202071433108
 136460.921734999050 -1946.91884139811555 3821.04337149258708
 136460.924949023291 -2065.98007590552970 3758.00380708816829
 136460.927978214720 -2183.00244011040832 3691.25553857888235
 136460.930774801265 -2297.87044569468844 3620.86443728748964
 136460.933294679038 -2410.47073034815412 3546.89996979814669
 136460.935498108011 -2520.69216967962439 3469.43512941923518
 136460.937350338732 -2628.42598692122419 3388.54636415981167
 136460.938822160504 -2733.56586031655524 3304.31350129051270
 136460.939890361653 -2836.00802808580056 3216.81966856323015
 136460.940538096067 -2935.65139086322415 3126.15121216741272
 136460.940755148564 -3032.39761150505365 3032.39761150411186
 136460.940538096067 -3126.15121216832495 2935.65139086225236
 136460.939890361653 -3216.81966856411145 2836.00802808480103
 136460.938822160475 -3304.31350129136035 2733.56586031552979
 136460.937350338791 -3388.54636416062885 2628.42598692017373
 136460.935498108011 -3469.43512942001689 2520.69216967854800
 136460.933294679038 -3546.89996979889429 2410.47073034705454
 136460.930774801265 -3620.86443728820313 2297.87044569356522
 136460.927978214720 -3691.25553857955947 2183.00244010926281
 136460.924949023261 -3758.00380708880812 2065.98007590436328
 136460.921734999079 -3821.04337149319144 1946.91884139693025
 136460.918386829289 -3880.31202071489724 1825.93623690612208
 136460.914957316505 -3935.75126528739429 1703.15165876321566
 136460.911500546237 -3987.30639504464489 1578.68628145560569
 136460.908071033860 -4034.92653307702085 1452.66293802074551
 136460.904722864710 -4078.56468590153918 1325.20599880854661
 136460.901508841460 -4118.17778979783270 1196.44124873231385
 136460.898479651194 -4153.72675326507215 1066.49576312955128
 136460.895683065959 -4185.17649555895241 935.497782355262530
 136460.893163189583 -4212.49598127169338 803.576585231438571
 136460.890959761979 -4235.65825092189425 670.862361477414879
 136460.889107532508 -4254.64044752496102 537.486083246641101
 136460.887635711842 -4269.42383911874731 403.579375896154659
 136460.886567511450 -4279.99383722290349 269.274388115679415
 136460.885919777589 -4286.34001121439360 134.703661543805623
 136460.885702725296 -4288.45609860546028 -0.886951815019329394E-09
 136460.885919777589 -4286.34001121433721 -134.703661545578655
 136460.886567511450 -4279.99383722279345 -269.274388117449860
 136460.887635711842 -4269.42383911857996 -403.579375897920670
 136460.889107532479 -4254.64044752473819 -537.486083248400973
 136460.890959761979 -4235.65825092161595 -670.862361479168840
 136460.893163189612 -4212.49598127136142 -803.576585233183096
 136460.895683065959 -4185.17649555856497 -935.497782356995572
 136460.898479651194 -4153.72675326463013 -1066.49576313127113
 136460.901508841460 -4118.17778979733703 -1196.44124873401870
 136460.904722864681 -4078.56468590098984 -1325.20599881023509
 136460.908071033802 -4034.92653307641740 -1452.66293802241557
 136460.911500546237 -3987.30639504399096 -1578.68628145725665
 136460.914957316505 -3935.75126528669034 -1703.15165876484366
 136460.918386829289 -3880.31202071414191 -1825.93623690772711
 136460.921734999079 -3821.04337149238609 -1946.91884139851072
 136460.924949023291 -3758.00380708795456 -2065.98007590591851
 136460.927978214720 -3691.25553857865634 -2183.00244011078985
 136460.930774801265 -3620.86443728725226 -2297.87044569506315
 136460.933294679067 -3546.89996979789839 -2410.47073034852156
 136460.935498107981 -3469.43512941897234 -2520.69216967998364
 136460.937350338732 -3388.54636415953883 -2628.42598692157571
 136460.938822160504 -3304.31350129022894 -2733.56586031689812
 136460.939890361653 -3216.81966856293684 -2836.00802808613253
 136460.940538096067 -3126.15121216710986 -2935.65139086354702
 136460.940755148564 -3032.39761150379763 -3032.39761150536742
 136460.940538096067 -2935.65139086192949 -3126.15121216862872
 136460.939890361653 -2836.00802808446815 -3216.81966856440431
 136460.938822160504 -2733.56586031518827 -3304.31350129164412
 136460.937350338761 -2628.42598691982084 -3388.54636416090170
 136460.935498108011 -2520.69216967818920 -3469.43512942027746
 136460.933294679038 -2410.47073034668574 -3546.89996979914440
 136460.930774801265 -2297.87044569319050 -3620.86443728844051
 136460.927978214720 -2183.00244010887945 -3691.25553857978639
 136460.924949023291 -2065.98007590397538 -3758.00380708902276
 136460.921734999079 -1946.91884139653348 -3821.04337149339381
 136460.918386829289 -1825.93623690572053 -3880.31202071508596
 136460.914957316505 -1703.15165876280685 -3935.75126528757164
 136460.911500546266 -1578.68628145519529 -3987.30639504480814
 136460.908071033802 -1452.66293802032760 -4034.92653307716910
 136460.904722864681 -1325.20599880812642 -4078.56468590167469
 136460.901508841460 -1196.44124873188775 -4118.17778979795548
 136460.898479651165 -1066.49576312912336 -4153.72675326518129
 136460.895683065959 -935.497782354829610 -4185.17649555904882
 136460.893163189583 -803.576585231004856 -4212.49598127177615
 136460.890959761979 -670.862361476976844 -4235.65825092196337
 136460.889107532508 -537.486083246199200 -4254.64044752501650
 136460.887635711842 -403.579375895713099 -4269.42383911878915
 136460.886567511450 -269.274388115234956 -4279.99383722293169
 136460.885919777560 -134.703661543362358 -4286.34001121440633
 136460.885702725296 0.133233217960930055E-08 -4288.45609860546028
 136460.885919777589 134.703661546021920 -4286.34001121432266
 136460.886567511450 269.274388117894375 -4279.99383722276434
 136460.887635711842 403.579375898362230 -4269.42383911853904
 136460.889107532508 537.486083248842988 -4254.64044752468271
 136460.890959761979 670.862361479604829 -4235.65825092154682
 136460.893163189583 803.576585233618516 -4212.49598127127774
 136460.895683065959 935.497782357426559 -4185.17649555846856
 136460.898479651165 1066.49576313170064 -4153.72675326451917
 136460.901508841489 1196.44124873444321 -4118.17778979721425
 136460.904722864681 1325.20599881065709 -4078.56468590085206
 136460.908071033860 1452.66293802283531 -4034.92653307626824
 136460.911500546237 1578.68628145766888 -3987.30639504382816
 136460.914957316505 1703.15165876525248 -3935.75126528651344
 136460.918386829289 1825.93623690812865 -3880.31202071395364
 136460.921734999079 1946.91884139890772 -3821.04337149218372
 136460.924949023261 2065.98007590630687 -3758.00380708773946
 136460.927978214720 2183.00244011117320 -3691.25553857842988
 136460.930774801236 2297.87044569543650 -3620.86443728701397
 136460.933294679067 2410.47073034888990 -3546.89996979764737
 136460.935498108011 2520.69216968034198 -3469.43512941871359
 136460.937350338732 2628.42598692192587 -3388.54636415926734
 136460.938822160504 2733.56586031723873 -3304.31350128994791
 136460.939890361653 2836.00802808646586 -3216.81966856264398
 136460.940538096067 2935.65139086386989 -3126.15121216680745
 136460.940755148564 3032.39761150568074 -3032.39761150348431
 136460.940538096067 3126.15121216893385 -2935.65139086160525
 136460.939890361653 3216.81966856469762 -2836.00802808413573
 136460.938822160475 3304.31350129192697 -2733.56586031484449
 136460.937350338761 3388.54636416117182 -2628.42598691947251
 136460.935498108011 3469.43512942053940 -2520.69216967782859
 136460.933294679067 3546.89996979939406 -2410.47073034632103
 136460.930774801236 3620.86443728867835 -2297.87044569281443
 136460.927978214720 3691.25553858001103 -2183.00244010849974
 136460.924949023261 3758.00380708923649 -2065.98007590358429
 136460.921734999050 3821.04337149359299 -1946.91884139613944
 136460.918386829260 3880.31202071527468 -1825.93623690531763
 136460.914957316505 3935.75126528774672 -1703.15165876240189
 136460.911500546237 3987.30639504497185 -1578.68628145478101
 136460.908071033831 4034.92653307731962 -1452.66293801991264
 136460.904722864652 4078.56468590181157 -1325.20599880770260
 136460.901508841460 4118.17778979807917 -1196.44124873146370
 136460.898479651194 4153.72675326529225 -1066.49576312869203
 136460.895683065959 4185.17649555914613 -935.497782354395099
 136460.893163189583 4212.49598127185982 -803.576585230567389
 136460.890959761949 4235.65825092203249 -670.862361476536762
 136460.889107532508 4254.64044752507198 -537.486083245761165
 136460.887635711813 4269.42383911882916 -403.579375895269607
 136460.886567511450 4279.99383722295988 -269.274388114794249
 136460.885919777560 4286.34001121441997 -134.703661542917189
 136460.885702725296 4288.45609860546028 0.177390363003865879E-08
 136926.517462428426 8614.68628435031678 0.000000000000000000E+00
 136926.520957284025 8610.43567647000964 270.593842317926601
 136926.531386735995 8597.68804312055363 540.920682383648455
 136926.548586308665 8576.45595114524076 810.713780266459935
 136926.572284759575 8546.76033184744483 1079.70692045021315
 136926.602108356485 8508.63046084266352 1347.63467346895686
 136926.637586771103 8462.10392986206898 1614.23265685512570
 136926.678160495911 8407.22661051878640 1879.23779516871241
 136926.723189667508 8344.05261005190914 2142.38857887390668
 136926.771964157029 8272.64421906770076 2403.42532182736568
 136926.823714768747 8193.07185130238759 2662.09041713973465
 136926.877625370456 8105.41397543644598 2918.12859116927439
 136926.932845763775 8009.75703899664768 3171.28715540370467
 136926.988505092217 7906.19538438904328 3421.31625598363280
 136927.043725574942 7794.83115711383107 3667.96912061840794
 136927.097636349907 7675.77420622145655 3911.00230264303082
 136927.149387207814 7549.14197707848507 4150.17592196294936
 136927.198162000946 7415.05939652155757 4385.25390263235840
 136927.243191514601 7273.65875048809903 4616.00420681098331
 136927.283765598317 7125.07955422338455 4842.19906484454350
 136927.319244366139 6969.46841517487974 5063.61520121511421
 136927.349068288429 6806.97888869627877 5280.03405610944174
 136927.372767016408 6637.77132669557432 5491.24200235625904
 136927.389966800489 6462.01271937325873 5697.03055748742281
 136927.400396384823 6279.87653020852304 5897.19659068266265
 136927.403891285474 6091.54252436290335 6091.54252436353272
 136927.400396384823 5897.19659068201327 6279.87653020913240
 136927.389966800489 5697.03055748675524 6462.01271937384900
 136927.372767016408 5491.24200235557146 6637.77132669614366
 136927.349068288429 5280.03405610873779 6806.97888869682356
 136927.319244366139 5063.61520121439298 6969.46841517540452
 136927.283765598317 4842.19906484380590 7125.07955422388568
 136927.243191514601 4616.00420681023024 7273.65875048857561
 136927.198162000946 4385.25390263159170 7415.05939652201050
 136927.149387207814 4150.17592196216810 7549.14197707891435
 136927.097636349907 3911.00230264223683 7675.77420622186128
 136927.043725574942 3667.96912061760258 7794.83115711420942
 136926.988505092217 3421.31625598281471 7906.19538438939799
 136926.932845763775 3171.28715540287567 8009.75703899697601
 136926.877625370456 2918.12859116843492 8105.41397543674884
 136926.823714768747 2662.09041713888701 8193.07185130266407
 136926.771964157058 2403.42532182651121 8272.64421906795178
 136926.723189667508 2142.38857887304357 8344.05261005213106
 136926.678160495911 1879.23779516784316 8407.22661051898103
 136926.637586771045 1614.23265685424849 8462.10392986223269
 136926.602108356485 1347.63467346807579 8508.63046084280359
 136926.572284759604 1079.70692044932844 8546.76033184755943
 136926.548586308665 810.713780265572154 8576.45595114532443
 136926.531386735995 540.920682382758969 8597.68804312060820
 136926.520957284054 270.593842317035978 8610.43567647004056
 136926.517462428426 -0.890858092054540384E-09 8614.68628435031678