 VARIABLES = "x_1", "x_2", "x_3"
 ZONE F = POINT , I = 201  , J = 101
 124700.000000000000 0.000000000000000000E+00 0.000000000000000000E+00
 124700.000000000000 0.000000000000000000E+00 0.000000000000000000E+00
 124700.000000000000 0.000000000000000000E+00 0.000000000000000000E+00
 124700.000000000000 0.000000000000000000E+00 0.000000000000000000E+00
 124699.999999999985 0.000000000000000000E+00 0.000000000000000000E+00
 124700.000000000000 0.000000000000000000E+00 0.000000000000000000E+00
 124700.000000000000 0.000000000000000000E+00 0.000000000000000000E+00
 124699.999999999985 0.000000000000000000E+00 0.000000000000000000E+00
 124700.000000000000 0.000000000000000000E+00 0.000000000000000000E+00
 124700.000000000000 0.000000000000000000E+00 0.000000000000000000E+00
 124700.000000000000 0.000000000000000000E+00 0.000000000000000000E+00
 124700.000000000000 0.000000000000000000E+00 0.000000000000000000E+00
 124700.000000000000 0.000000000000000000E+00 0.000000000000000000E+00
 124700.000000000000 0.000000000000000000E+00 0.000000000000000000E+00
 124700.000000000000 0.000000000000000000E+00 0.000000000000000000E+00
 124700.000000000000 0.000000000000000000E+00 0.000000000000000000E+00
 124700.000000000000 0.000000000000000000E+00 0.000000000000000000E+00
 124700.000000000000 0.000000000000000000E+00 0.000000000000000000E+00
 124700.000000000000 0.000000000000000000E+00 0.000000000000000000E+00
 124700.000000000000 0.000000000000000000E+00 0.000000000000000000E+00
 124700.000000000000 0.000000000000000000E+00 0.000000000000000000E+00
 124700.000000000000 0.000000000000000000E+00 0.000000000000000000E+00
 124700.000000000000 0.000000000000000000E+00 0.000000000000000000E+00
 124700.000000000000 0.000000000000000000E+00 0.000000000000000000E+00
 124700.000000000000 0.000000000000000000E+00 0.000000000000000000E+00
 124700.000000000000 0.000000000000000000E+00 0.000000000000000000E+00
 124700.000000000000 0.000000000000000000E+00 0.000000000000000000E+00
 124699.999999999985 0.000000000000000000E+00 0.000000000000000000E+00
 124700.000000000000 0.000000000000000000E+00 0.000000000000000000E+00
 124700.000000000000 0.000000000000000000E+00 0.000000000000000000E+00
 124700.000000000000 0.000000000000000000E+00 0.000000000000000000E+00
 124700.000000000000 0.000000000000000000E+00 0.000000000000000000E+00
 124700.000000000015 0.000000000000000000E+00 0.000000000000000000E+00
 124700.000000000000 0.000000000000000000E+00 0.000000000000000000E+00
 124700.000000000000 0.000000000000000000E+00 0.000000000000000000E+00
 124700.000000000000 0.000000000000000000E+00 0.000000000000000000E+00
 124699.999999999985 0.000000000000000000E+00 0.000000000000000000E+00
 124700.000000000000 0.000000000000000000E+00 0.000000000000000000E+00
 124700.000000000000 0.000000000000000000E+00 0.000000000000000000E+00
 124700.000000000015 0.000000000000000000E+00 0.000000000000000000E+00
 124699.999999999985 0.000000000000000000E+00 0.000000000000000000E+00
 124700.000000000015 0.000000000000000000E+00 0.000000000000000000E+00
 124700.000000000000 0.000000000000000000E+00 0.000000000000000000E+00
 124700.000000000015 0.000000000000000000E+00 0.000000000000000000E+00
 124700.000000000015 0.000000000000000000E+00 0.000000000000000000E+00
 124700.000000000000 0.000000000000000000E+00 0.000000000000000000E+00
 124700.000000000000 0.000000000000000000E+00 0.000000000000000000E+00
 124700.000000000000 0.000000000000000000E+00 0.000000000000000000E+00
 124700.000000000015 0.000000000000000000E+00 0.000000000000000000E+00
 124700.000000000015 0.000000000000000000E+00 0.000000000000000000E+00
 124700.000000000000 0.000000000000000000E+00 0.000000000000000000E+00
 124700.000000000015 0.000000000000000000E+00 0.000000000000000000E+00
 124700.000000000000 0.000000000000000000E+00 0.000000000000000000E+00
 124700.000000000015 0.000000000000000000E+00 0.000000000000000000E+00
 124700.000000000000 0.000000000000000000E+00 0.000000000000000000E+00
 124700.000000000000 0.000000000000000000E+00 0.000000000000000000E+00
 124699.999999999985 0.000000000000000000E+00 0.000000000000000000E+00
 124700.000000000000 0.000000000000000000E+00 0.000000000000000000E+00
 124700.000000000000 0.000000000000000000E+00 0.000000000000000000E+00
 124700.000000000015 0.000000000000000000E+00 0.000000000000000000E+00
 124700.000000000000 0.000000000000000000E+00 0.000000000000000000E+00
 124699.999999999985 0.000000000000000000E+00 0.000000000000000000E+00
 124700.000000000000 0.000000000000000000E+00 0.000000000000000000E+00
 124700.000000000000 0.000000000000000000E+00 0.000000000000000000E+00
 124700.000000000000 0.000000000000000000E+00 0.000000000000000000E+00
 124700.000000000000 0.000000000000000000E+00 0.000000000000000000E+00
 124700.000000000000 0.000000000000000000E+00 0.000000000000000000E+00
 124700.000000000015 0.000000000000000000E+00 0.000000000000000000E+00
 124700.000000000000 0.000000000000000000E+00 0.000000000000000000E+00
 124700.000000000000 0.000000000000000000E+00 0.000000000000000000E+00
 124700.000000000000 0.000000000000000000E+00 0.000000000000000000E+00
 124700.000000000015 0.000000000000000000E+00 0.000000000000000000E+00
 124700.000000000015 0.000000000000000000E+00 0.000000000000000000E+00
 124700.000000000015 0.000000000000000000E+00 0.000000000000000000E+00
 124700.000000000015 0.000000000000000000E+00 0.000000000000000000E+00
 124700.000000000000 0.000000000000000000E+00 0.000000000000000000E+00
 124700.000000000000 0.000000000000000000E+00 0.000000000000000000E+00
 124700.000000000000 0.000000000000000000E+00 0.000000000000000000E+00
 124700.000000000000 0.000000000000000000E+00 0.000000000000000000E+00
 124699.999999999985 0.000000000000000000E+00 0.000000000000000000E+00
 124700.000000000000 0.000000000000000000E+00 0.000000000000000000E+00
 124700.000000000000 0.000000000000000000E+00 0.000000000000000000E+00
 124700.000000000000 0.000000000000000000E+00 0.000000000000000000E+00
 124700.000000000000 0.000000000000000000E+00 0.000000000000000000E+00
 124700.000000000000 0.000000000000000000E+00 0.000000000000000000E+00
 124700.000000000000 0.000000000000000000E+00 0.000000000000000000E+00
 124700.000000000000 0.000000000000000000E+00 0.000000000000000000E+00
 124700.000000000000 0.000000000000000000E+00 0.000000000000000000E+00
 124700.000000000015 0.000000000000000000E+00 0.000000000000000000E+00
 124700.000000000000 0.000000000000000000E+00 0.000000000000000000E+00
 124700.000000000000 0.000000000000000000E+00 0.000000000000000000E+00
 124699.999999999985 0.000000000000000000E+00 0.000000000000000000E+00
 124700.000000000000 0.000000000000000000E+00 0.000000000000000000E+00
 124699.999999999985 0.000000000000000000E+00 0.000000000000000000E+00
 124700.000000000000 0.000000000000000000E+00 0.000000000000000000E+00
 124700.000000000000 0.000000000000000000E+00 0.000000000000000000E+00
 124700.000000000000 0.000000000000000000E+00 0.000000000000000000E+00
 124700.000000000000 0.000000000000000000E+00 0.000000000000000000E+00
 124700.000000000000 0.000000000000000000E+00 0.000000000000000000E+00
 124700.000000000015 0.000000000000000000E+00 0.000000000000000000E+00
 124700.000000000000 0.000000000000000000E+00 0.000000000000000000E+00
 124700.000000000000 0.000000000000000000E+00 0.000000000000000000E+00
 124700.000000000015 0.000000000000000000E+00 0.000000000000000000E+00
 124700.000000000000 0.000000000000000000E+00 0.000000000000000000E+00
 124700.000000000000 0.000000000000000000E+00 0.000000000000000000E+00
 124699.999999999985 0.000000000000000000E+00 0.000000000000000000E+00
 124700.000000000000 0.000000000000000000E+00 0.000000000000000000E+00
 124700.000000000015 0.000000000000000000E+00 0.000000000000000000E+00
 124700.000000000000 0.000000000000000000E+00 0.000000000000000000E+00
 124700.000000000000 0.000000000000000000E+00 0.000000000000000000E+00
 124700.000000000000 0.000000000000000000E+00 0.000000000000000000E+00
 124700.000000000000 0.000000000000000000E+00 0.000000000000000000E+00
 124700.000000000015 0.000000000000000000E+00 0.000000000000000000E+00
 124700.000000000000 0.000000000000000000E+00 0.000000000000000000E+00
 124700.000000000000 0.000000000000000000E+00 0.000000000000000000E+00
 124700.000000000000 0.000000000000000000E+00 0.000000000000000000E+00
 124700.000000000015 0.000000000000000000E+00 0.000000000000000000E+00
 124700.000000000000 0.000000000000000000E+00 0.000000000000000000E+00
 124699.999999999985 0.000000000000000000E+00 0.000000000000000000E+00
 124700.000000000000 0.000000000000000000E+00 0.000000000000000000E+00
 124700.000000000000 0.000000000000000000E+00 0.000000000000000000E+00
 124700.000000000015 0.000000000000000000E+00 0.000000000000000000E+00
 124700.000000000000 0.000000000000000000E+00 0.000000000000000000E+00
 124700.000000000000 0.000000000000000000E+00 0.000000000000000000E+00
 124700.000000000000 0.000000000000000000E+00 0.000000000000000000E+00
 124700.000000000000 0.000000000000000000E+00 0.000000000000000000E+00
 124700.000000000000 0.000000000000000000E+00 0.000000000000000000E+00
 124700.000000000000 0.000000000000000000E+00 0.000000000000000000E+00
 124700.000000000015 0.000000000000000000E+00 0.000000000000000000E+00
 124700.000000000000 0.000000000000000000E+00 0.000000000000000000E+00
 124700.000000000000 0.000000000000000000E+00 0.000000000000000000E+00
 124700.000000000015 0.000000000000000000E+00 0.000000000000000000E+00
 124700.000000000000 0.000000000000000000E+00 0.000000000000000000E+00
 124700.000000000015 0.000000000000000000E+00 0.000000000000000000E+00
 124700.000000000000 0.000000000000000000E+00 0.000000000000000000E+00
 124700.000000000000 0.000000000000000000E+00 0.000000000000000000E+00
 124700.000000000000 0.000000000000000000E+00 0.000000000000000000E+00
 124700.000000000000 0.000000000000000000E+00 0.000000000000000000E+00
 124700.000000000000 0.000000000000000000E+00 0.000000000000000000E+00
 124700.000000000000 0.000000000000000000E+00 0.000000000000000000E+00
 124700.000000000000 0.000000000000000000E+00 0.000000000000000000E+00
 124700.000000000000 0.000000000000000000E+00 0.000000000000000000E+00
 124700.000000000000 0.000000000000000000E+00 0.000000000000000000E+00
 124700.000000000000 0.000000000000000000E+00 0.000000000000000000E+00
 124700.000000000000 0.000000000000000000E+00 0.000000000000000000E+00
 124700.000000000015 0.000000000000000000E+00 0.000000000000000000E+00
 124700.000000000015 0.000000000000000000E+00 0.000000000000000000E+00
 124700.000000000015 0.000000000000000000E+00 0.000000000000000000E+00
 124700.000000000000 0.000000000000000000E+00 0.000000000000000000E+00
 124700.000000000015 0.000000000000000000E+00 0.000000000000000000E+00
 124700.000000000000 0.000000000000000000E+00 0.000000000000000000E+00
 124700.000000000000 0.000000000000000000E+00 0.000000000000000000E+00
 124700.000000000015 0.000000000000000000E+00 0.000000000000000000E+00
 124700.000000000000 0.000000000000000000E+00 0.000000000000000000E+00
 124700.000000000000 0.000000000000000000E+00 0.000000000000000000E+00
 124699.999999999985 0.000000000000000000E+00 0.000000000000000000E+00
 124700.000000000000 0.000000000000000000E+00 0.000000000000000000E+00
 124700.000000000015 0.000000000000000000E+00 0.000000000000000000E+00
 124699.999999999985 0.000000000000000000E+00 0.000000000000000000E+00
 124700.000000000015 0.000000000000000000E+00 0.000000000000000000E+00
 124700.000000000015 0.000000000000000000E+00 0.000000000000000000E+00
 124699.999999999985 0.000000000000000000E+00 0.000000000000000000E+00
 124700.000000000000 0.000000000000000000E+00 0.000000000000000000E+00
 124700.000000000000 0.000000000000000000E+00 0.000000000000000000E+00
 124699.999999999985 0.000000000000000000E+00 0.000000000000000000E+00
 124700.000000000000 0.000000000000000000E+00 0.000000000000000000E+00
 124700.000000000000 0.000000000000000000E+00 0.000000000000000000E+00
 124700.000000000000 0.000000000000000000E+00 0.000000000000000000E+00
 124700.000000000000 0.000000000000000000E+00 0.000000000000000000E+00
 124700.000000000000 0.000000000000000000E+00 0.000000000000000000E+00
 124700.000000000000 0.000000000000000000E+00 0.000000000000000000E+00
 124699.999999999985 0.000000000000000000E+00 0.000000000000000000E+00
 124700.000000000000 0.000000000000000000E+00 0.000000000000000000E+00
 124700.000000000000 0.000000000000000000E+00 0.000000000000000000E+00
 124700.000000000000 0.000000000000000000E+00 0.000000000000000000E+00
 124700.000000000000 0.000000000000000000E+00 0.000000000000000000E+00
 124700.000000000000 0.000000000000000000E+00 0.000000000000000000E+00
 124700.000000000000 0.000000000000000000E+00 0.000000000000000000E+00
 124700.000000000000 0.000000000000000000E+00 0.000000000000000000E+00
 124700.000000000000 0.000000000000000000E+00 0.000000000000000000E+00
 124700.000000000000 0.000000000000000000E+00 0.000000000000000000E+00
 124700.000000000000 0.000000000000000000E+00 0.000000000000000000E+00
 124700.000000000015 0.000000000000000000E+00 0.000000000000000000E+00
 124700.000000000000 0.000000000000000000E+00 0.000000000000000000E+00
 124700.000000000000 0.000000000000000000E+00 0.000000000000000000E+00
 124700.000000000000 0.000000000000000000E+00 0.000000000000000000E+00
 124700.000000000000 0.000000000000000000E+00 0.000000000000000000E+00
 124700.000000000000 0.000000000000000000E+00 0.000000000000000000E+00
 124700.000000000000 0.000000000000000000E+00 0.000000000000000000E+00
 124699.999999999985 0.000000000000000000E+00 0.000000000000000000E+00
 124700.000000000000 0.000000000000000000E+00 0.000000000000000000E+00
 124700.000000000015 0.000000000000000000E+00 0.000000000000000000E+00
 124700.000000000000 0.000000000000000000E+00 0.000000000000000000E+00
 124699.999999999985 0.000000000000000000E+00 0.000000000000000000E+00
 124700.000000000000 0.000000000000000000E+00 0.000000000000000000E+00
 124699.999999999985 0.000000000000000000E+00 0.000000000000000000E+00
 124699.999999999985 0.000000000000000000E+00 0.000000000000000000E+00
 124700.000000000015 0.000000000000000000E+00 0.000000000000000000E+00
 124700.000000000015 0.000000000000000000E+00 0.000000000000000000E+00
 124699.999999999985 0.000000000000000000E+00 0.000000000000000000E+00
 124700.000000000000 0.000000000000000000E+00 0.000000000000000000E+00
 124267.003014036760 3905.24789712929532 0.000000000000000000E+00
 124267.004281689398 3903.32093285313931 122.666802088432433
 124267.008064656009 3897.54194088223994 245.212554317766546
 124267.014303277523 3887.91662193224920 367.516326077160556
 124267.022899168209 3874.45447100720548 489.457425140117834
 124267.033716767051 3857.16876812127111 610.915516576209598
 124267.046585475618 3836.07656531890052 731.770741326187817
 124267.061302348418 3811.19867000321119 851.903834328168273
 124267.077635293346 3782.55962458527119 971.196242082496042
 124267.095326731695 3750.18768246997479 1089.53023954282776
 124267.114097660437 3714.11478039731082 1206.78904622092682
 124267.133652051998 3674.37650716094004 1322.85694139264228
 124267.153681522759 3631.01206872934745 1437.61937829260955
 124267.173870196450 3584.06424979820031 1550.96309718532689
 124267.193899685575 3533.57937180607269 1662.77623720048882
 124267.213454112789 3479.60724744931940 1772.94844682082271
 124267.232225092186 3422.20113173558684 1881.37099291114941
 124267.249916593020 3361.41766961930398 1987.93686817806838
 124267.266249608307 3297.31684026634593 2092.54089695049061
 124267.280966555001 3229.96189799904596 2195.07983917229694
 124267.293835336255 3159.41930997672125 2295.45249249963990
 124267.304653002037 3085.75869067088934 2393.55979239690396
 124267.313248949693 3009.05273319836533 2489.30491012703897
 124267.319487614732 2929.37713757943038 2582.59334853393329
 124267.323270608540 2846.81053599215238 2673.33303551669542
 124267.324538270521 2761.43441509785634 2761.43441509814193
 124267.323270608569 2673.33303551640165 2846.81053599242978
 124267.319487614746 2582.59334853363043 2929.37713757969823
 124267.313248949722 2489.30491012672837 3009.05273319862408
 124267.304653002037 2393.55979239658518 3085.75869067113626
 124267.293835336241 2295.45249249931248 3159.41930997695863
 124267.280966554987 2195.07983917196225 3229.96189799927288
 124267.266249608321 2092.54089695014954 3297.31684026656239
 124267.249916593035 1987.93686817772095 3361.41766961950998
 124267.232225092186 1881.37099291079539 3422.20113173578147
 124267.213454112789 1772.94844682046300 3479.60724744950267
 124267.193899685575 1662.77623720012366 3533.57937180624458
 124267.173870196450 1550.96309718495581 3584.06424979836083
 124267.153681522774 1437.61937829223393 3631.01206872949660
 124267.133652052027 1322.85694139226212 3674.37650716107828
 124267.114097660437 1206.78904622054256 3714.11478039743588
 124267.095326731709 1089.53023954244031 3750.18768247008802
 124267.077635293346 971.196242082104959 3782.55962458537169
 124267.061302348433 851.903834327774348 3811.19867000329987
 124267.046585475633 731.770741325790596 3836.07656531897646
 124267.033716767022 610.915516575810102 3857.16876812133341
 124267.022899168223 489.457425139716634 3874.45447100725687
 124267.014303277538 367.516326076758219 3887.91662193228785
 124267.008064656024 245.212554317363271 3897.54194088226541
 124267.004281689427 122.666802088028717 3903.32093285315295
 124267.003014036760 -0.403847752059955965E-09 3905.24789712929532
 124267.004281689427 -122.666802088835993 3903.32093285312794
 124267.008064655995 -245.212554318169367 3897.54194088221357
 124267.014303277523 -367.516326077563122 3887.91662193221055
 124267.022899168194 -489.457425140518808 3874.45447100715410
 124267.033716767037 -610.915516576608752 3857.16876812120745
 124267.046585475618 -731.770741326584698 3836.07656531882458
 124267.061302348433 -851.903834328562539 3811.19867000312388
 124267.077635293346 -971.196242082887238 3782.55962458517070
 124267.095326731695 -1089.53023954321543 3750.18768246986201
 124267.114097660451 -1206.78904622131176 3714.11478039718577
 124267.133652051998 -1322.85694139302245 3674.37650716080361
 124267.153681522759 -1437.61937829298540 3631.01206872919875
 124267.173870196450 -1550.96309718569796 3584.06424979804024
 124267.193899685575 -1662.77623720085444 3533.57937180590079
 124267.213454112789 -1772.94844682118264 3479.60724744913614
 124267.232225092186 -1881.37099291150321 3422.20113173539266
 124267.249916593020 -1987.93686817841558 3361.41766961909889
 124267.266249608336 -2092.54089695083167 3297.31684026612947
 124267.280966554987 -2195.07983917263027 3229.96189799881859
 124267.293835336241 -2295.45249249996596 3159.41930997648387
 124267.304653002037 -2393.55979239722319 3085.75869067064150
 124267.313248949722 -2489.30491012735047 3009.05273319810885
 124267.319487614732 -2582.59334853423752 2929.37713757916299
 124267.323270608540 -2673.33303551699055 2846.81053599187499
 124267.324538270521 -2761.43441509842796 2761.43441509757031
 124267.323270608540 -2846.81053599270581 2673.33303551610561
 124267.319487614732 -2929.37713757996517 2582.59334853332757
 124267.313248949722 -3009.05273319888147 2489.30491012641687
 124267.304653002022 -3085.75869067138410 2393.55979239626549
 124267.293835336255 -3159.41930997719601 2295.45249249898598
 124267.280966554972 -3229.96189799949934 2195.07983917162846
 124267.266249608307 -3297.31684026677840 2092.54089694980848
 124267.249916593035 -3361.41766961971553 1987.93686817737284
 124267.232225092186 -3422.20113173597611 1881.37099291044160
 124267.213454112774 -3479.60724744968547 1772.94844682010284
 124267.193899685575 -3533.57937180641648 1662.77623719975827
 124267.173870196450 -3584.06424979852045 1550.96309718458588
 124267.153681522759 -3631.01206872964485 1437.61937829185740
 124267.133652052027 -3674.37650716121516 1322.85694139188149
 124267.114097660451 -3714.11478039756139 1206.78904622015784
 124267.095326731738 -3750.18768247020171 1089.53023954205196
 124267.077635293332 -3782.55962458547174 971.196242081712853
 124267.061302348433 -3811.19867000338809 851.903834327379286
 124267.046585475618 -3836.07656531905150 731.770741325393715
 124267.033716767022 -3857.16876812139662 610.915516575411175
 124267.022899168194 -3874.45447100730644 489.457425139315887
 124267.014303277538 -3887.91662193232560 367.516326076356165
 124267.008064656009 -3897.54194088228996 245.212554316960194
 124267.004281689427 -3903.32093285316614 122.666802087625058
 124267.003014036760 -3905.24789712929532 -0.807695504119911930E-09
 124267.004281689413 -3903.32093285311475 -122.666802089239638
 124267.008064655995 -3897.54194088218856 -245.212554318572387
 124267.014303277523 -3887.91662193217371 -367.516326077964379
 124267.022899168194 -3874.45447100710408 -489.457425140918588
 124267.033716767037 -3857.16876812114424 -610.915516577008475
 124267.046585475618 -3836.07656531874909 -731.770741326982147
 124267.061302348433 -3811.19867000303520 -851.903834328957487
 124267.077635293332 -3782.55962458506974 -971.196242083279003
 124267.095326731709 -3750.18768246974969 -1089.53023954360424
 124267.114097660437 -3714.11478039706117 -1206.78904622169557
 124267.133652051998 -3674.37650716066628 -1322.85694139340262
 124267.153681522759 -3631.01206872904959 -1437.61937829336080
 124267.173870196464 -3584.06424979788017 -1550.96309718606858
 124267.193899685604 -3533.57937180572981 -1662.77623720122028
 124267.213454112789 -3479.60724744895242 -1772.94844682154235
 124267.232225092186 -3422.20113173519803 -1881.37099291185723
 124267.249916593020 -3361.41766961889243 -1987.93686817876323
 124267.266249608307 -3297.31684026591302 -2092.54089695117273
 124267.280966554987 -3229.96189799859212 -2195.07983917296406
 124267.293835336241 -3159.41930997624559 -2295.45249250029383
 124267.304653002037 -3085.75869067039321 -2393.55979239754333
 124267.313248949693 -3009.05273319784965 -2489.30491012766197
 124267.319487614732 -2929.37713757889605 -2582.59334853453993
 124267.323270608540 -2846.81053599159895 -2673.33303551728432
 124267.324538270492 -2761.43441509728336 -2761.43441509871263
 124267.323270608540 -2673.33303551581139 -2846.81053599298230
 124267.319487614746 -2582.59334853302471 -2929.37713758023256
 124267.313248949722 -2489.30491012610537 -3009.05273319913886
 124267.304653002007 -2393.55979239594444 -3085.75869067163239
 124267.293835336241 -2295.45249249865901 -3159.41930997743339
 124267.280966554972 -2195.07983917129286 -3229.96189799972717
 124267.266249608321 -2092.54089694946742 -3297.31684026699486
 124267.249916593020 -1987.93686817702360 -3361.41766961992153
 124267.232225092186 -1881.37099291008781 -3422.20113173617074
 124267.213454112789 -1772.94844681974178 -3479.60724744987010
 124267.193899685575 -1662.77623719939265 -3533.57937180658837
 124267.173870196450 -1550.96309718421367 -3584.06424979868189
 124267.153681522759 -1437.61937829148337 -3631.01206872979310
 124267.133652051998 -1322.85694139150110 -3674.37650716135067
 124267.114097660451 -1206.78904621977540 -3714.11478039768554
 124267.095326731709 -1089.53023954166360 -3750.18768247031358
 124267.077635293375 -971.196242081323589 -3782.55962458557315
 124267.061302348433 -851.903834326985134 -3811.19867000347631
 124267.046585475618 -731.770741324998767 -3836.07656531912698
 124267.033716767022 -610.915516575012361 -3857.16876812145983
 124267.022899168209 -489.457425138913493 -3874.45447100735782
 124267.014303277523 -367.516326075954055 -3887.91662193236334
 124267.008064655995 -245.212554316555412 -3897.54194088231452
 124267.004281689413 -122.666802087221399 -3903.32093285317842
 124267.003014036760 0.121327753463277260E-08 -3905.24789712929532
 124267.004281689427 122.666802089643312 -3903.32093285310202
 124267.008064656009 245.212554318977197 -3897.54194088216309
 124267.014303277523 367.516326078366433 -3887.91662193213551
 124267.022899168194 489.457425141321039 -3874.45447100705314
 124267.033716767037 610.915516577405469 -3857.16876812108103
 124267.046585475618 731.770741327378914 -3836.07656531867360
 124267.061302348433 851.903834329350047 -3811.19867000294789
 124267.077635293332 971.196242083670313 -3782.55962458496924
 124267.095326731709 1089.53023954399055 -3750.18768246963782
 124267.114097660437 1206.78904622207983 -3714.11478039693611
 124267.133652051998 1322.85694139378415 -3674.37650716052894
 124267.153681522774 1437.61937829373642 -3631.01206872890180
 124267.173870196420 1550.96309718644034 -3584.06424979771737
 124267.193899685575 1662.77623720158545 -3533.57937180555700
 124267.213454112789 1772.94844682190364 -3479.60724744876825
 124267.232225092186 1881.37099291221125 -3422.20113173500295
 124267.249916593020 1987.93686817911225 -3361.41766961868643
 124267.266249608321 2092.54089695151333 -3297.31684026569656
 124267.280966555001 2195.07983917330012 -3229.96189799836429
 124267.293835336255 2295.45249250061943 -3159.41930997600957
 124267.304653002037 2393.55979239786257 -3085.75869067014537
 124267.313248949693 2489.30491012797211 -3009.05273319759362
 124267.319487614732 2582.59334853484324 -2929.37713757862912
 124267.323270608569 2673.33303551757899 -2846.81053599132429
 124267.324538270521 2761.43441509899867 -2761.43441509699869
 124267.323270608540 2846.81053599326015 -2673.33303551551580
 124267.319487614703 2929.37713758049858 -2582.59334853272094
 124267.313248949722 3009.05273319939715 -2489.30491012579296
 124267.304653002037 3085.75869067187978 -2393.55979239562794
 124267.293835336241 3159.41930997767167 -2295.45249249833068
 124267.280966554987 3229.96189799995409 -2195.07983917096044
 124267.266249608307 3297.31684026721223 -2092.54089694912545
 124267.249916593020 3361.41766962012616 -1987.93686817667754
 124267.232225092186 3422.20113173636628 -1881.37099290973219
 124267.213454112774 3479.60724745005200 -1772.94844681938321
 124267.193899685575 3533.57937180676117 -1662.77623719902590
 124267.173870196450 3584.06424979884150 -1550.96309718384487
 124267.153681522759 3631.01206872994271 -1437.61937829110639
 124267.133652052027 3674.37650716148801 -1322.85694139112320
 124267.114097660451 3714.11478039781105 -1206.78904621938977
 124267.095326731709 3750.18768247042590 -1089.53023954127752
 124267.077635293375 3782.55962458567365 -971.196242080930801
 124267.061302348433 3811.19867000356453 -851.903834326589390
 124267.046585475618 3836.07656531920293 -731.770741324600408
 124267.033716767037 3857.16876812152395 -610.915516574611729
 124267.022899168223 3874.45447100740830 -489.457425138514679
 124267.014303277523 3887.91662193240109 -367.516326075550239
 124267.008064656009 3897.54194088234090 -245.212554316154126
 124267.004281689413 3903.32093285319070 -122.666802086816006
 124267.003014036760 3905.24789712929532 0.161539100823982386E-08
 122982.807942808038 7737.42243964179306 0.000000000000000000E+00
 122982.827448300581 7733.60571531902769 243.038350684012755
 122982.885657217033 7722.15928363130934 485.837081809378219
 122982.981651721086 7703.09436530962739 728.156803722115569
 122983.113918166317 7676.42965119233759 969.758586520467702
 122983.280370952285 7642.19128661760806 1210.40418978405910
 122983.478385395167 7600.41284949879264 1449.85629211508058
 122983.704839097336 7551.13532201168982 1687.87872040981938
 122983.956161163500 7494.40705580619397 1924.23667876314175
 122984.228388489908 7430.28373064156040 2158.69697688974020
 122984.517228240031 7358.82830633444519 2391.02825792446856
 122984.818125523045 7280.11096790265492 2621.00122544053420
 122985.126335209410 7194.20906378545078 2848.38886949929883
 122985.436996751610 7101.20703702342962 3072.96669151961214
 122985.745210831621 7001.19634928770574 3294.51292772865600
 122986.046116625905 6894.27539765915117 3512.80877093093068
 122986.334968470037 6780.54942407389990 3727.63859030792719
 122986.607210713322 6660.13041737083131 3938.79014893889689
 122986.858549581957 6533.13700790001076 4146.05481871352367
 122987.085020916435 6399.69435467780113 4349.22779229086518
 122987.283052713552 6259.93402510381293 4548.10829174609535
 122987.449521485250 6113.99386728676382 4742.49977353775557
 122987.581801543289 5962.01787505966968 4932.21012942375546
 122987.677806431835 5804.15604579944102 5117.05188295448806
 122987.736021852004 5640.56423120044474 5296.84238117613404
 122987.755529558810 5471.40398118609846 5471.40398118666417
 122987.736021852004 5296.84238117555105 5640.56423120099134
 122987.677806431835 5117.05188295388780 5804.15604579997125
 122987.581801543274 4932.21012942313700 5962.01787506018081
 122987.449521485236 4742.49977353712256 6113.99386728725312
 122987.283052713567 4548.10829174544779 6259.93402510428587
 122987.085020916435 4349.22779229020307 6399.69435467825133
 122986.858549581942 4146.05481871284701 6533.13700790043913
 122986.607210713308 3938.79014893820795 6660.13041737123694
 122986.334968470022 3727.63859030722551 6780.54942407428462
 122986.046116625905 3512.80877093021763 6894.27539765951406
 122985.745210831621 3294.51292772793249 7001.19634928804589
 122985.436996751640 3072.96669151887772 7101.20703702374976
 122985.126335209410 2848.38886949855441 7194.20906378574546
 122984.818125523045 2621.00122543978023 7280.11096790292686
 122984.517228240045 2391.02825792370777 7358.82830633469348
 122984.228388489893 2158.69697688897168 7430.28373064178322
 122983.956161163500 1924.23667876236664 7494.40705580639315
 122983.704839097336 1687.87872040903881 7551.13532201186445
 122983.478385395167 1449.85629211429341 7600.41284949894361
 122983.280370952300 1210.40418978326784 7642.19128661773539
 122983.113918166331 969.758586519673031 7676.42965119243945
 122982.981651721027 728.156803721317829 7703.09436530969924
 122982.885657217033 485.837081808579285 7722.15928363135845
 122982.827448300566 243.038350683212769 7733.60571531905316
 122982.807942808038 -0.800138874995505662E-09 7737.42243964179306