 VARIABLES = "x_1", "x_2", "x_3"
 ZONE F = POINT , I = 201  , J = 101
 36000.0000000000000 0.000000000000000000E+00 0.000000000000000000E+00
 36000.0000000000000 0.000000000000000000E+00 0.000000000000000000E+00
 36000.0000000000000 0.000000000000000000E+00 0.000000000000000000E+00
 35999.9999999999927 0.000000000000000000E+00 0.000000000000000000E+00
 35999.9999999999927 0.000000000000000000E+00 0.000000000000000000E+00
 36000.0000000000000 0.000000000000000000E+00 0.000000000000000000E+00
 35999.9999999999927 0.000000000000000000E+00 0.000000000000000000E+00
 36000.0000000000000 0.000000000000000000E+00 0.000000000000000000E+00
 36000.0000000000000 0.000000000000000000E+00 0.000000000000000000E+00
 36000.0000000000000 0.000000000000000000E+00 0.000000000000000000E+00
 36000.0000000000000 0.000000000000000000E+00 0.000000000000000000E+00
 36000.0000000000000 0.000000000000000000E+00 0.000000000000000000E+00
 36000.0000000000000 0.000000000000000000E+00 0.000000000000000000E+00
 36000.0000000000000 0.000000000000000000E+00 0.000000000000000000E+00
 36000.0000000000000 0.000000000000000000E+00 0.000000000000000000E+00
 36000.0000000000000 0.000000000000000000E+00 0.000000000000000000E+00
 36000.0000000000000 0.000000000000000000E+00 0.000000000000000000E+00
 36000.0000000000000 0.000000000000000000E+00 0.000000000000000000E+00
 36000.0000000000000 0.000000000000000000E+00 0.000000000000000000E+00
 36000.0000000000000 0.000000000000000000E+00 0.000000000000000000E+00
 36000.0000000000000 0.000000000000000000E+00 0.000000000000000000E+00
 36000.0000000000000 0.000000000000000000E+00 0.000000000000000000E+00
 35999.9999999999927 0.000000000000000000E+00 0.000000000000000000E+00
 36000.0000000000000 0.000000000000000000E+00 0.000000000000000000E+00
 36000.0000000000000 0.000000000000000000E+00 0.000000000000000000E+00
 36000.0000000000000 0.000000000000000000E+00 0.000000000000000000E+00
 36000.0000000000000 0.000000000000000000E+00 0.000000000000000000E+00
 35999.9999999999927 0.000000000000000000E+00 0.000000000000000000E+00
 36000.0000000000000 0.000000000000000000E+00 0.000000000000000000E+00
 36000.0000000000000 0.000000000000000000E+00 0.000000000000000000E+00
 35999.9999999999927 0.000000000000000000E+00 0.000000000000000000E+00
 36000.0000000000000 0.000000000000000000E+00 0.000000000000000000E+00
 36000.0000000000000 0.000000000000000000E+00 0.000000000000000000E+00
 35999.9999999999927 0.000000000000000000E+00 0.000000000000000000E+00
 36000.0000000000000 0.000000000000000000E+00 0.000000000000000000E+00
 36000.0000000000000 0.000000000000000000E+00 0.000000000000000000E+00
 35999.9999999999927 0.000000000000000000E+00 0.000000000000000000E+00
 35999.9999999999927 0.000000000000000000E+00 0.000000000000000000E+00
 35999.9999999999927 0.000000000000000000E+00 0.000000000000000000E+00
 36000.0000000000000 0.000000000000000000E+00 0.000000000000000000E+00
 36000.0000000000000 0.000000000000000000E+00 0.000000000000000000E+00
 36000.0000000000000 0.000000000000000000E+00 0.000000000000000000E+00
 36000.0000000000000 0.000000000000000000E+00 0.000000000000000000E+00
 36000.0000000000000 0.000000000000000000E+00 0.000000000000000000E+00
 36000.0000000000000 0.000000000000000000E+00 0.000000000000000000E+00
 36000.0000000000000 0.000000000000000000E+00 0.000000000000000000E+00
 36000.0000000000000 0.000000000000000000E+00 0.000000000000000000E+00
 36000.0000000000000 0.000000000000000000E+00 0.000000000000000000E+00
 36000.0000000000000 0.000000000000000000E+00 0.000000000000000000E+00
 36000.0000000000000 0.000000000000000000E+00 0.000000000000000000E+00
 36000.0000000000000 0.000000000000000000E+00 0.000000000000000000E+00
 36000.0000000000000 0.000000000000000000E+00 0.000000000000000000E+00
 36000.0000000000000 0.000000000000000000E+00 0.000000000000000000E+00
 36000.0000000000000 0.000000000000000000E+00 0.000000000000000000E+00
 36000.0000000000000 0.000000000000000000E+00 0.000000000000000000E+00
 35999.9999999999927 0.000000000000000000E+00 0.000000000000000000E+00
 36000.0000000000000 0.000000000000000000E+00 0.000000000000000000E+00
 36000.0000000000000 0.000000000000000000E+00 0.000000000000000000E+00
 36000.0000000000000 0.000000000000000000E+00 0.000000000000000000E+00
 36000.0000000000000 0.000000000000000000E+00 0.000000000000000000E+00
 36000.0000000000000 0.000000000000000000E+00 0.000000000000000000E+00
 35999.9999999999927 0.000000000000000000E+00 0.000000000000000000E+00
 36000.0000000000000 0.000000000000000000E+00 0.000000000000000000E+00
 36000.0000000000000 0.000000000000000000E+00 0.000000000000000000E+00
 36000.0000000000000 0.000000000000000000E+00 0.000000000000000000E+00
 36000.0000000000000 0.000000000000000000E+00 0.000000000000000000E+00
 36000.0000000000000 0.000000000000000000E+00 0.000000000000000000E+00
 36000.0000000000000 0.000000000000000000E+00 0.000000000000000000E+00
 36000.0000000000000 0.000000000000000000E+00 0.000000000000000000E+00
 36000.0000000000000 0.000000000000000000E+00 0.000000000000000000E+00
 36000.0000000000000 0.000000000000000000E+00 0.000000000000000000E+00
 36000.0000000000000 0.000000000000000000E+00 0.000000000000000000E+00
 36000.0000000000073 0.000000000000000000E+00 0.000000000000000000E+00
 36000.0000000000000 0.000000000000000000E+00 0.000000000000000000E+00
 36000.0000000000000 0.000000000000000000E+00 0.000000000000000000E+00
 36000.0000000000000 0.000000000000000000E+00 0.000000000000000000E+00
 35999.9999999999927 0.000000000000000000E+00 0.000000000000000000E+00
 36000.0000000000000 0.000000000000000000E+00 0.000000000000000000E+00
 36000.0000000000000 0.000000000000000000E+00 0.000000000000000000E+00
 36000.0000000000000 0.000000000000000000E+00 0.000000000000000000E+00
 36000.0000000000000 0.000000000000000000E+00 0.000000000000000000E+00
 36000.0000000000000 0.000000000000000000E+00 0.000000000000000000E+00
 36000.0000000000000 0.000000000000000000E+00 0.000000000000000000E+00
 36000.0000000000000 0.000000000000000000E+00 0.000000000000000000E+00
 35999.9999999999927 0.000000000000000000E+00 0.000000000000000000E+00
 35999.9999999999927 0.000000000000000000E+00 0.000000000000000000E+00
 36000.0000000000000 0.000000000000000000E+00 0.000000000000000000E+00
 36000.0000000000000 0.000000000000000000E+00 0.000000000000000000E+00
 36000.0000000000000 0.000000000000000000E+00 0.000000000000000000E+00
 36000.0000000000000 0.000000000000000000E+00 0.000000000000000000E+00
 36000.0000000000000 0.000000000000000000E+00 0.000000000000000000E+00
 35999.9999999999927 0.000000000000000000E+00 0.000000000000000000E+00
 36000.0000000000000 0.000000000000000000E+00 0.000000000000000000E+00
 36000.0000000000000 0.000000000000000000E+00 0.000000000000000000E+00
 36000.0000000000000 0.000000000000000000E+00 0.000000000000000000E+00
 36000.0000000000000 0.000000000000000000E+00 0.000000000000000000E+00
 35999.9999999999927 0.000000000000000000E+00 0.000000000000000000E+00
 36000.0000000000000 0.000000000000000000E+00 0.000000000000000000E+00
 35999.9999999999927 0.000000000000000000E+00 0.000000000000000000E+00
 36000.0000000000000 0.000000000000000000E+00 0.000000000000000000E+00
 36000.0000000000000 0.000000000000000000E+00 0.000000000000000000E+00
 36000.0000000000000 0.000000000000000000E+00 0.000000000000000000E+00
 36000.0000000000000 0.000000000000000000E+00 0.000000000000000000E+00
 36000.0000000000000 0.000000000000000000E+00 0.000000000000000000E+00
 36000.0000000000000 0.000000000000000000E+00 0.000000000000000000E+00
 35999.9999999999927 0.000000000000000000E+00 0.000000000000000000E+00
 36000.0000000000000 0.000000000000000000E+00 0.000000000000000000E+00
 36000.0000000000000 0.000000000000000000E+00 0.000000000000000000E+00
 36000.0000000000000 0.000000000000000000E+00 0.000000000000000000E+00
 36000.0000000000000 0.000000000000000000E+00 0.000000000000000000E+00
 36000.0000000000000 0.000000000000000000E+00 0.000000000000000000E+00
 36000.0000000000000 0.000000000000000000E+00 0.000000000000000000E+00
 36000.0000000000000 0.000000000000000000E+00 0.000000000000000000E+00
 36000.0000000000000 0.000000000000000000E+00 0.000000000000000000E+00
 35999.9999999999927 0.000000000000000000E+00 0.000000000000000000E+00
 36000.0000000000000 0.000000000000000000E+00 0.000000000000000000E+00
 36000.0000000000000 0.000000000000000000E+00 0.000000000000000000E+00
 36000.0000000000000 0.000000000000000000E+00 0.000000000000000000E+00
 36000.0000000000000 0.000000000000000000E+00 0.000000000000000000E+00
 36000.0000000000000 0.000000000000000000E+00 0.000000000000000000E+00
 36000.0000000000000 0.000000000000000000E+00 0.000000000000000000E+00
 36000.0000000000000 0.000000000000000000E+00 0.000000000000000000E+00
 36000.0000000000000 0.000000000000000000E+00 0.000000000000000000E+00
 36000.0000000000000 0.000000000000000000E+00 0.000000000000000000E+00
 36000.0000000000000 0.000000000000000000E+00 0.000000000000000000E+00
 36000.0000000000000 0.000000000000000000E+00 0.000000000000000000E+00
 36000.0000000000000 0.000000000000000000E+00 0.000000000000000000E+00
 36000.0000000000000 0.000000000000000000E+00 0.000000000000000000E+00
 36000.0000000000000 0.000000000000000000E+00 0.000000000000000000E+00
 36000.0000000000000 0.000000000000000000E+00 0.000000000000000000E+00
 36000.0000000000073 0.000000000000000000E+00 0.000000000000000000E+00
 36000.0000000000000 0.000000000000000000E+00 0.000000000000000000E+00
 36000.0000000000000 0.000000000000000000E+00 0.000000000000000000E+00
 36000.0000000000000 0.000000000000000000E+00 0.000000000000000000E+00
 36000.0000000000000 0.000000000000000000E+00 0.000000000000000000E+00
 36000.0000000000000 0.000000000000000000E+00 0.000000000000000000E+00
 36000.0000000000000 0.000000000000000000E+00 0.000000000000000000E+00
 36000.0000000000000 0.000000000000000000E+00 0.000000000000000000E+00
 36000.0000000000000 0.000000000000000000E+00 0.000000000000000000E+00
 36000.0000000000000 0.000000000000000000E+00 0.000000000000000000E+00
 35999.9999999999927 0.000000000000000000E+00 0.000000000000000000E+00
 36000.0000000000000 0.000000000000000000E+00 0.000000000000000000E+00
 36000.0000000000000 0.000000000000000000E+00 0.000000000000000000E+00
 36000.0000000000000 0.000000000000000000E+00 0.000000000000000000E+00
 36000.0000000000000 0.000000000000000000E+00 0.000000000000000000E+00
 36000.0000000000000 0.000000000000000000E+00 0.000000000000000000E+00
 36000.0000000000000 0.000000000000000000E+00 0.000000000000000000E+00
 36000.0000000000000 0.000000000000000000E+00 0.000000000000000000E+00
 35999.9999999999927 0.000000000000000000E+00 0.000000000000000000E+00
 35999.9999999999927 0.000000000000000000E+00 0.000000000000000000E+00
 36000.0000000000000 0.000000000000000000E+00 0.000000000000000000E+00
 36000.0000000000000 0.000000000000000000E+00 0.000000000000000000E+00
 36000.0000000000000 0.000000000000000000E+00 0.000000000000000000E+00
 36000.0000000000000 0.000000000000000000E+00 0.000000000000000000E+00
 36000.0000000000000 0.000000000000000000E+00 0.000000000000000000E+00
 36000.0000000000000 0.000000000000000000E+00 0.000000000000000000E+00
 36000.0000000000000 0.000000000000000000E+00 0.000000000000000000E+00
 36000.0000000000000 0.000000000000000000E+00 0.000000000000000000E+00
 36000.0000000000000 0.000000000000000000E+00 0.000000000000000000E+00
 36000.0000000000000 0.000000000000000000E+00 0.000000000000000000E+00
 36000.0000000000000 0.000000000000000000E+00 0.000000000000000000E+00
 35999.9999999999927 0.000000000000000000E+00 0.000000000000000000E+00
 36000.0000000000000 0.000000000000000000E+00 0.000000000000000000E+00
 36000.0000000000000 0.000000000000000000E+00 0.000000000000000000E+00
 35999.9999999999927 0.000000000000000000E+00 0.000000000000000000E+00
 36000.0000000000000 0.000000000000000000E+00 0.000000000000000000E+00
 36000.0000000000000 0.000000000000000000E+00 0.000000000000000000E+00
 36000.0000000000000 0.000000000000000000E+00 0.000000000000000000E+00
 35999.9999999999927 0.000000000000000000E+00 0.000000000000000000E+00
 36000.0000000000000 0.000000000000000000E+00 0.000000000000000000E+00
 36000.0000000000000 0.000000000000000000E+00 0.000000000000000000E+00
 36000.0000000000000 0.000000000000000000E+00 0.000000000000000000E+00
 36000.0000000000000 0.000000000000000000E+00 0.000000000000000000E+00
 36000.0000000000000 0.000000000000000000E+00 0.000000000000000000E+00
 36000.0000000000000 0.000000000000000000E+00 0.000000000000000000E+00
 35999.9999999999927 0.000000000000000000E+00 0.000000000000000000E+00
 36000.0000000000000 0.000000000000000000E+00 0.000000000000000000E+00
 36000.0000000000000 0.000000000000000000E+00 0.000000000000000000E+00
 36000.0000000000000 0.000000000000000000E+00 0.000000000000000000E+00
 36000.0000000000000 0.000000000000000000E+00 0.000000000000000000E+00
 36000.0000000000000 0.000000000000000000E+00 0.000000000000000000E+00
 36000.0000000000000 0.000000000000000000E+00 0.000000000000000000E+00
 36000.0000000000000 0.000000000000000000E+00 0.000000000000000000E+00
 36000.0000000000000 0.000000000000000000E+00 0.000000000000000000E+00
 36000.0000000000000 0.000000000000000000E+00 0.000000000000000000E+00
 36000.0000000000000 0.000000000000000000E+00 0.000000000000000000E+00
 36000.0000000000000 0.000000000000000000E+00 0.000000000000000000E+00
 36000.0000000000000 0.000000000000000000E+00 0.000000000000000000E+00
 35999.9999999999927 0.000000000000000000E+00 0.000000000000000000E+00
 35999.9999999999927 0.000000000000000000E+00 0.000000000000000000E+00
 36000.0000000000000 0.000000000000000000E+00 0.000000000000000000E+00
 36000.0000000000000 0.000000000000000000E+00 0.000000000000000000E+00
 36000.0000000000000 0.000000000000000000E+00 0.000000000000000000E+00
 36000.0000000000000 0.000000000000000000E+00 0.000000000000000000E+00
 36000.0000000000000 0.000000000000000000E+00 0.000000000000000000E+00
 36000.0000000000000 0.000000000000000000E+00 0.000000000000000000E+00
 35999.9999999999927 0.000000000000000000E+00 0.000000000000000000E+00
 36000.0000000000000 0.000000000000000000E+00 0.000000000000000000E+00
 36000.0000000000000 0.000000000000000000E+00 0.000000000000000000E+00
 36000.0000000000000 0.000000000000000000E+00 0.000000000000000000E+00
 36000.0000000000000 0.000000000000000000E+00 0.000000000000000000E+00
 36031.8340939601767 1132.34600426675729 0.000000000000000000E+00
 36031.8342437319734 1131.78726457299217 35.5678476809498534
 36031.8346906853840 1130.11159680301807 71.1005950723573790
 36031.8354277717081 1127.32065434894821 106.563176499222209
 36031.8364433667230 1123.41719105863444 141.920595482119523
 36031.8377214539287 1118.40505852883848 177.137959251232189
 36031.8392418772055 1112.28920231905136 212.180513159924885
 36031.8409806586569 1105.07565708933612 247.013674964452122
 36031.8429103767630 1096.77154066654771 281.603068936466400
 36031.8450005987543 1087.38504704426896 315.914559775080477
 36031.8472183606718 1076.92543832278989 349.914286285354990
 36031.8495286871548 1065.40303559645076 383.568694790216739
 36031.8518951429869 1052.82920879667654 416.844572242978700
 36031.8542804077806 1039.21636550004564 449.709079007827597
 36031.8566468645004 1024.57793871175568 482.129781275863877
 36031.8589571926568 1008.92837363586784 514.074683084538037
 36031.8611749569754 992.283113444758555 545.512257908625088
 36031.8632651819280 974.658584061227543 576.411479791199099
 36031.8651949033519 956.072177967752964 606.741853983449005
 36031.8669336883031 936.542237058422529 636.473447062585819
 36031.8684541150287 916.088034550093198 665.576916497545085
 36031.8697322054068 894.729755970354518 694.023539632686379
 36031.8707478031138 872.488479240888068 721.785242060242354
 36031.8714848915042 849.386153875808532 748.834625352845364
 36031.8719318461954 825.445579315545615 775.144994128105054
 36031.8720816184359 800.690382417800720 800.690382417883484
 36031.8719318462026 775.144994128020016 825.445579315625992
 36031.8714848915042 748.834625352757371 849.386153875886066
 36031.8707478031210 721.785242060152200 872.488479240963102
 36031.8697322054068 694.023539632593838 894.729755970426140
 36031.8684541150287 665.576916497450156 916.088034550162092
 36031.8669336883031 636.473447062488958 936.542237058488467
 36031.8651949033519 606.741853983350097 956.072177967815605
 36031.8632651819280 576.411479791098373 974.658584061287229
 36031.8611749569754 545.512257908522429 992.283113444815058
 36031.8589571926568 514.074683084433786 1008.92837363592105
 36031.8566468644931 482.129781275757921 1024.57793871180547
 36031.8542804077806 449.709079007720050 1039.21636550009225
 36031.8518951429869 416.844572242869731 1052.82920879671951
 36031.8495286871548 383.568694790106406 1065.40303559649055
 36031.8472183606718 349.914286285243634 1076.92543832282604
 36031.8450005987615 315.914559774968154 1087.38504704430170
 36031.8429103767630 281.603068936352997 1096.77154066657704
 36031.8409806586569 247.013674964337866 1105.07565708936158
 36031.8392418772128 212.180513159809720 1112.28920231907364
 36031.8377214539287 177.137959251116428 1118.40505852885667
 36031.8364433667230 141.920595482003193 1123.41719105864922
 36031.8354277717153 106.563176499105552 1127.32065434895958
 36031.8346906853840 71.1005950722404378 1130.11159680302535
 36031.8342437319734 35.5678476808327915 1131.78726457299604
 36031.8340939601767 -0.117097659463143453E-09 1132.34600426675729
 36031.8342437319734 -35.5678476810668585 1131.78726457298876
 36031.8346906853767 -71.1005950724741638 1130.11159680301034
 36031.8354277717081 -106.563176499338923 1127.32065434893707
 36031.8364433667230 -141.920595482235825 1123.41719105861966
 36031.8377214539287 -177.137959251347951 1118.40505852882006
 36031.8392418772055 -212.180513160039965 1112.28920231902930
 36031.8409806586569 -247.013674964566405 1105.07565708931065
 36031.8429103767630 -281.603068936579859 1096.77154066651860
 36031.8450005987470 -315.914559775192856 1087.38504704423599
 36031.8472183606791 -349.914286285466630 1076.92543832275373
 36031.8495286871548 -383.568694790327015 1065.40303559641120
 36031.8518951429869 -416.844572243087669 1052.82920879663334
 36031.8542804077806 -449.709079007935259 1039.21636549999903
 36031.8566468645004 -482.129781275969890 1024.57793871170588
 36031.8589571926568 -514.074683084642402 1008.92837363581475
 36031.8611749569754 -545.512257908727747 992.283113444702281
 36031.8632651819280 -576.411479791299826 974.658584061167971
 36031.8651949033519 -606.741853983547799 956.072177967689981
 36031.8669336883031 -636.473447062682681 936.542237058356704
 36031.8684541150287 -665.576916497639672 916.088034550024531
 36031.8697322054068 -694.023539632779034 894.729755970282667
 36031.8707478031138 -721.785242060332394 872.488479240813604
 36031.8714848915042 -748.834625352933472 849.386153875730997
 36031.8719318462026 -775.144994128190774 825.445579315465466
 36031.8720816184359 -800.690382417966475 800.690382417717728
 36031.8719318462026 -825.445579315706254 775.144994127934297
 36031.8714848915042 -849.386153875963601 748.834625352669605
 36031.8707478031138 -872.488479241037567 721.785242060061819
 36031.8697322054068 -894.729755970498104 694.023539632501297
 36031.8684541150287 -916.088034550230873 665.576916497355455
 36031.8669336883031 -936.542237058554178 636.473447062392211
 36031.8651949033519 -956.072177967878361 606.741853983251303
 36031.8632651819280 -974.658584061346687 576.411479790997419
 36031.8611749569754 -992.283113444871447 545.512257908419883
 36031.8589571926568 -1008.92837363597403 514.074683084329422
 36031.8566468645004 -1024.57793871185550 482.129781275652022
 36031.8542804077879 -1039.21636550013864 449.709079007612900
 36031.8518951429869 -1052.82920879676271 416.844572242760592
 36031.8495286871548 -1065.40303559653034 383.568694789996073
 36031.8472183606718 -1076.92543832286242 349.914286285131993
 36031.8450005987615 -1087.38504704433467 315.914559774855434
 36031.8429103767630 -1096.77154066660614 281.603068936239367
 36031.8409806586569 -1105.07565708938728 247.013674964223355
 36031.8392418772055 -1112.28920231909524 212.180513159694641
 36031.8377214539287 -1118.40505852887509 177.137959251000751
 36031.8364433667230 -1123.41719105866378 141.920595481887034
 36031.8354277717081 -1127.32065434897027 106.563176498988966
 36031.8346906853840 -1130.11159680303263 71.1005950721235678
 36031.8342437319734 -1131.78726457299967 35.5678476807157438
 36031.8340939601767 -1132.34600426675729 -0.234195318926286907E-09
 36031.8342437319734 -1131.78726457298512 -35.5678476811839062
 36031.8346906853767 -1130.11159680300307 -71.1005950725910338
 36031.8354277717081 -1127.32065434892615 -106.563176499455281
 36031.8364433667230 -1123.41719105860534 -141.920595482351729
 36031.8377214539287 -1118.40505852880165 -177.137959251463855
 36031.8392418772128 -1112.28920231900770 -212.180513160155243
 36031.8409806586642 -1105.07565708928519 -247.013674964681002
 36031.8429103767630 -1096.77154066648950 -281.603068936693489
 36031.8450005987543 -1087.38504704420347 -315.914559775305577
 36031.8472183606791 -1076.92543832271781 -349.914286285577987
 36031.8495286871548 -1065.40303559637141 -383.568694790437178
 36031.8518951429869 -1052.82920879659014 -416.844572243196524
 36031.8542804077879 -1039.21636549995287 -449.709079008042750
 36031.8566468645004 -1024.57793871165609 -482.129781276075846
 36031.8589571926568 -1008.92837363576143 -514.074683084746653
 36031.8611749569754 -992.283113444645892 -545.512257908830293
 36031.8632651819280 -974.658584061108172 -576.411479791400666
 36031.8651949033447 -956.072177967627113 -606.741853983646592
 36031.8669336883104 -936.542237058291107 -636.473447062779542
 36031.8684541150287 -916.088034549955296 -665.576916497734715
 36031.8697322054068 -894.729755970210704 -694.023539632871802
 36031.8707478031138 -872.488479240738684 -721.785242060423002
 36031.8714848915042 -849.386153875653577 -748.834625353021238
 36031.8719318462026 -825.445579315385316 -775.144994128276153
 36031.8720816184359 -800.690382417634737 -800.690382418049239
 36031.8719318462026 -775.144994127849031 -825.445579315786517
 36031.8714848915042 -748.834625352581725 -849.386153876041021
 36031.8707478031210 -721.785242059971665 -872.488479241112373
 36031.8697322054068 -694.023539632408301 -894.729755970570295
 36031.8684541150287 -665.576916497260754 -916.088034550299767
 36031.8669336883031 -636.473447062294895 -936.542237058620231
 36031.8651949033519 -606.741853983152396 -956.072177967941002
 36031.8632651819280 -576.411479790896237 -974.658584061406600
 36031.8611749569754 -545.512257908317338 -992.283113444927835
 36031.8589571926568 -514.074683084224603 -1008.92837363602746
 36031.8566468645004 -482.129781275546009 -1024.57793871190529
 36031.8542804077879 -449.709079007504954 -1039.21636550018547
 36031.8518951429869 -416.844572242652134 -1052.82920879680569
 36031.8495286871621 -383.568694789885967 -1065.40303559657013
 36031.8472183606791 -349.914286285021205 -1076.92543832289857
 36031.8450005987615 -315.914559774742941 -1087.38504704436718
 36031.8429103767630 -281.603068936126419 -1096.77154066663502
 36031.8409806586642 -247.013674964109100 -1105.07565708941297
 36031.8392418772055 -212.180513159580102 -1112.28920231911729
 36031.8377214539287 -177.137959250885103 -1118.40505852889351
 36031.8364433667230 -141.920595481770334 -1123.41719105867855
 36031.8354277717081 -106.563176498872380 -1127.32065434898118
 36031.8346906853767 -71.1005950720061861 -1130.11159680303967
 36031.8342437319734 -35.5678476805987103 -1131.78726457300354
 36031.8340939601767 0.351795841031742060E-09 -1132.34600426675729
 36031.8342437319734 35.5678476813009468 -1131.78726457298126
 36031.8346906853840 71.1005950727084013 -1130.11159680299579
 36031.8354277717081 106.563176499571853 -1127.32065434891524
 36031.8364433667230 141.920595482468428 -1123.41719105859056
 36031.8377214539287 177.137959251578991 -1118.40505852878346
 36031.8392418772055 212.180513160270237 -1112.28920231898564
 36031.8409806586642 247.013674964794831 -1105.07565708925972
 36031.8429103767558 281.603068936806892 -1096.77154066646017
 36031.8450005987543 315.914559775417615 -1087.38504704417096
 36031.8472183606791 349.914286285689400 -1076.92543832268143
 36031.8495286871548 383.568694790547795 -1065.40303559633162
 36031.8518951429869 416.844572243305436 -1052.82920879654716
 36031.8542804077806 449.709079008150638 -1039.21636549990581
 36031.8566468645004 482.129781276181859 -1024.57793871160629
 36031.8589571926568 514.074683084851472 -1008.92837363570800
 36031.8611749569754 545.512257908932952 -992.283113444589276
 36031.8632651819280 576.411479791501847 -974.658584061048487
 36031.8651949033447 606.741853983745500 -956.072177967564357
 36031.8669336883031 636.473447062876744 -936.542237058224828
 36031.8684541150287 665.576916497829188 -916.088034549886743
 36031.8697322054068 694.023539632964344 -894.729755970138854
 36031.8707478031138 721.785242060512928 -872.488479240664333
 36031.8714848915042 748.834625353109118 -849.386153875576156
 36031.8719318462026 775.144994128361304 -825.445579315305622
 36031.8720816184359 800.690382418132003 -800.690382417552087
 36031.8719318462026 825.445579315867008 -775.144994127763312
 36031.8714848915042 849.386153876118442 -748.834625352493845
 36031.8707478031138 872.488479241187179 -721.785242059880943
 36031.8697322054068 894.729755970641691 -694.023539632316329
 36031.8684541150287 916.088034550369002 -665.576916497165485
 36031.8669336883104 936.542237058686055 -636.473447062198602
 36031.8651949033519 956.072177968004098 -606.741853983053147
 36031.8632651819280 974.658584061465945 -576.411479790795966
 36031.8611749569754 992.283113444984565 -545.512257908214224
 36031.8589571926568 1008.92837363608032 -514.074683084120693
 36031.8566468645004 1024.57793871195531 -482.129781275439711
 36031.8542804077879 1039.21636550023163 -449.709079007398032
 36031.8518951429869 1052.82920879684912 -416.844572242542824
 36031.8495286871548 1065.40303559660947 -383.568694789776146
 36031.8472183606791 1076.92543832293495 -349.914286284909394
 36031.8450005987543 1087.38504704439947 -315.914559774630959
 36031.8429103767630 1096.77154066666435 -281.603068936012505
 36031.8409806586569 1105.07565708943844 -247.013674963994305
 36031.8392418772128 1112.28920231913935 -212.180513159464624
 36031.8377214539360 1118.40505852891215 -177.137959250768972
 36031.8364433667230 1123.41719105869311 -141.920595481654686
 36031.8354277717081 1127.32065434899232 -106.563176498755297
 36031.8346906853840 1130.11159680304741 -71.1005950718898418
 36031.8342437319734 1131.78726457300695 -35.5678476804811652
 36031.8340939601767 1132.34600426675729 0.468390637852573814E-09
 36126.6815798427051 2272.89815057451187 0.000000000000000000E+00
 36126.6839862797715 2271.77676386784287 71.3934609724188647
 36126.6911676426753 2268.41370729149003 142.716493587871554
 36126.7030106848470 2262.81229045910231 213.898738182936768
 36126.7193286469046 2254.97802600169643 284.869972434445287
 36126.7398642011904 2244.91862447758467 355.560179912033959
 36126.7642935089534 2232.64398724151715 425.899618488287729
 36126.7922313262679 2218.16619726860699 495.818888556829279
 36126.8232370782425 2201.49950792785467 565.249001006936396
 36126.8568218058135 2182.66032969966909 634.121444901137352
 36126.8924558756917 2161.66721483176116 702.368254799817919
 36126.9295773318518 2138.54083992826054 769.922077674235311
 36126.9676007569578 2113.30398646784033 836.716239346559405
 36127.0059265041782 2085.98151924812601 902.684810392723307
 36127.0439501535730 2056.60036275566154 967.762671441046223
 36127.0810720442023 2025.18947546327627 1031.88557779689177
 36127.1167067314527 1991.77982205973717 1094.99022332111440
 36127.1502922204891 1956.40434362015299 1157.01430348781560
 36127.1812988301681 1919.09792572958463 1217.89657754504083
 36127.2092375475549 1879.89736457674439 1277.57692970060043
 36127.2336677412095 1838.84133103938370 1335.99642925421313
 36127.2542041115157 1795.97033278798813 1393.09738959672268
 36127.2705227684783 1751.32667443957462 1448.82342599726576
 36127.2823663407398 1704.95441579867111 1503.11951209997187
 36127.2895480356383 1656.89932822785636 1555.93203505312545
 36127.2919545857294 1607.20884919544437 1607.20884919561058
 36127.2895480356383 1555.93203505295423 1656.89932822801711
 36127.2823663407398 1503.11951209979566 1704.95441579882663
 36127.2705227684710 1448.82342599708409 1751.32667443972446
 36127.2542041115157 1393.09738959653669 1795.97033278813205
 36127.2336677412095 1335.99642925402259 1838.84133103952240
 36127.2092375475549 1277.57692970040580 1879.89736457687650
 36127.1812988301681 1217.89657754484210 1919.09792572971037
 36127.1502922204818 1157.01430348761323 1956.40434362027213
 36127.1167067314454 1094.99022332090817 1991.77982205985018
 36127.0810720442023 1031.88557779668213 2025.18947546338313
 36127.0439501535730 967.762671440833742 2056.60036275576158
 36127.0059265041782 902.684810392507416 2085.98151924821923
 36126.9676007569651 836.716239346340785 2113.30398646792764
 36126.9295773318518 769.922077674013849 2138.54083992834057
 36126.8924558756917 702.368254799594297 2161.66721483183392
 36126.8568218058062 634.121444900911570 2182.66032969973412
 36126.8232370782353 565.249001006708568 2201.49950792791287
 36126.7922313262679 495.818888556599916 2218.16619726865792
 36126.7642935089534 425.899618488056490 2232.64398724156172
 36126.7398642011904 355.560179911801470 2244.91862447762151
 36126.7193286468973 284.869972434211775 2254.97802600172554
 36126.7030106848397 213.898738182702488 2262.81229045912414
 36126.6911676426753 142.716493587636876 2268.41370729150458
 36126.6839862797715 71.3934609721838740 2271.77676386785060
 36126.6815798427051 -0.235043928823440298E-09 2272.89815057451187