 VARIABLES = "x_1", "x_2", "x_3"
 ZONE F = POINT , I =         201  , J =         101
   1520.0448149592878        0.0000000000000000        0.0000000000000000     
   1520.0448149592878        0.0000000000000000        0.0000000000000000     
   1520.0448149592878        0.0000000000000000        0.0000000000000000     
   1520.0448149592878        0.0000000000000000        0.0000000000000000     
   1520.0448149592878        0.0000000000000000        0.0000000000000000     
   1520.0448149592878        0.0000000000000000        0.0000000000000000     
   1520.0448149592878        0.0000000000000000        0.0000000000000000     
   1520.0448149592878        0.0000000000000000        0.0000000000000000     
   1520.0448149592878        0.0000000000000000        0.0000000000000000     
   1520.0448149592878        0.0000000000000000        0.0000000000000000     
   1520.0448149592878        0.0000000000000000        0.0000000000000000     
   1520.0448149592878        0.0000000000000000        0.0000000000000000     
   1520.0448149592878        0.0000000000000000        0.0000000000000000     
   1520.0448149592878        0.0000000000000000        0.0000000000000000     
   1520.0448149592878        0.0000000000000000        0.0000000000000000     
   1520.0448149592878        0.0000000000000000        0.0000000000000000     
   1520.0448149592878        0.0000000000000000        0.0000000000000000     
   1520.0448149592878        0.0000000000000000        0.0000000000000000     
   1520.0448149592878        0.0000000000000000        0.0000000000000000     
   1520.0448149592878        0.0000000000000000        0.0000000000000000     
   1520.0448149592878        0.0000000000000000        0.0000000000000000     
   1520.0448149592878        0.0000000000000000        0.0000000000000000     
   1520.0448149592878        0.0000000000000000        0.0000000000000000     
   1520.0448149592878        0.0000000000000000        0.0000000000000000     
   1520.0448149592878        0.0000000000000000        0.0000000000000000     
   1520.0448149592878        0.0000000000000000        0.0000000000000000     
   1520.0448149592878        0.0000000000000000        0.0000000000000000     
   1520.0448149592878        0.0000000000000000        0.0000000000000000     
   1520.0448149592878        0.0000000000000000        0.0000000000000000     
   1520.0448149592878        0.0000000000000000        0.0000000000000000     
   1520.0448149592878        0.0000000000000000        0.0000000000000000     
   1520.0448149592878        0.0000000000000000        0.0000000000000000     
   1520.0448149592878        0.0000000000000000        0.0000000000000000     
   1520.0448149592878        0.0000000000000000        0.0000000000000000     
   1520.0448149592878        0.0000000000000000        0.0000000000000000     
   1520.0448149592878        0.0000000000000000        0.0000000000000000     
   1520.0448149592878        0.0000000000000000        0.0000000000000000     
   1520.0448149592878        0.0000000000000000        0.0000000000000000     
   1520.0448149592878        0.0000000000000000        0.0000000000000000     
   1520.0448149592878        0.0000000000000000        0.0000000000000000     
   1520.0448149592878        0.0000000000000000        0.0000000000000000     
   1520.0448149592878        0.0000000000000000        0.0000000000000000     
   1520.0448149592878        0.0000000000000000        0.0000000000000000     
   1520.0448149592878        0.0000000000000000        0.0000000000000000     
   1520.0448149592878        0.0000000000000000        0.0000000000000000     
   1520.0448149592878        0.0000000000000000        0.0000000000000000     
   1520.0448149592878        0.0000000000000000        0.0000000000000000     
   1520.0448149592878        0.0000000000000000        0.0000000000000000     
   1520.0448149592878        0.0000000000000000        0.0000000000000000     
   1520.0448149592878        0.0000000000000000        0.0000000000000000     
   1520.0448149592878       -0.0000000000000000        0.0000000000000000     
   1520.0448149592878       -0.0000000000000000        0.0000000000000000     
   1520.0448149592878       -0.0000000000000000        0.0000000000000000     
   1520.0448149592878       -0.0000000000000000        0.0000000000000000     
   1520.0448149592878       -0.0000000000000000        0.0000000000000000     
   1520.0448149592878       -0.0000000000000000        0.0000000000000000     
   1520.0448149592878       -0.0000000000000000        0.0000000000000000     
   1520.0448149592878       -0.0000000000000000        0.0000000000000000     
   1520.0448149592878       -0.0000000000000000        0.0000000000000000     
   1520.0448149592878       -0.0000000000000000        0.0000000000000000     
   1520.0448149592878       -0.0000000000000000        0.0000000000000000     
   1520.0448149592878       -0.0000000000000000        0.0000000000000000     
   1520.0448149592878       -0.0000000000000000        0.0000000000000000     
   1520.0448149592878       -0.0000000000000000        0.0000000000000000     
   1520.0448149592878       -0.0000000000000000        0.0000000000000000     
   1520.0448149592878       -0.0000000000000000        0.0000000000000000     
   1520.0448149592878       -0.0000000000000000        0.0000000000000000     
   1520.0448149592878       -0.0000000000000000        0.0000000000000000     
   1520.0448149592878       -0.0000000000000000        0.0000000000000000     
   1520.0448149592878       -0.0000000000000000        0.0000000000000000     
   1520.0448149592878       -0.0000000000000000        0.0000000000000000     
   1520.0448149592878       -0.0000000000000000        0.0000000000000000     
   1520.0448149592878       -0.0000000000000000        0.0000000000000000     
   1520.0448149592878       -0.0000000000000000        0.0000000000000000     
   1520.0448149592878       -0.0000000000000000        0.0000000000000000     
   1520.0448149592878       -0.0000000000000000        0.0000000000000000     
   1520.0448149592878       -0.0000000000000000        0.0000000000000000     
   1520.0448149592878       -0.0000000000000000        0.0000000000000000     
   1520.0448149592878       -0.0000000000000000        0.0000000000000000     
   1520.0448149592878       -0.0000000000000000        0.0000000000000000     
   1520.0448149592878       -0.0000000000000000        0.0000000000000000     
   1520.0448149592878       -0.0000000000000000        0.0000000000000000     
   1520.0448149592878       -0.0000000000000000        0.0000000000000000     
   1520.0448149592878       -0.0000000000000000        0.0000000000000000     
   1520.0448149592878       -0.0000000000000000        0.0000000000000000     
   1520.0448149592878       -0.0000000000000000        0.0000000000000000     
   1520.0448149592878       -0.0000000000000000        0.0000000000000000     
   1520.0448149592878       -0.0000000000000000        0.0000000000000000     
   1520.0448149592878       -0.0000000000000000        0.0000000000000000     
   1520.0448149592878       -0.0000000000000000        0.0000000000000000     
   1520.0448149592878       -0.0000000000000000        0.0000000000000000     
   1520.0448149592878       -0.0000000000000000        0.0000000000000000     
   1520.0448149592878       -0.0000000000000000        0.0000000000000000     
   1520.0448149592878       -0.0000000000000000        0.0000000000000000     
   1520.0448149592878       -0.0000000000000000        0.0000000000000000     
   1520.0448149592878       -0.0000000000000000        0.0000000000000000     
   1520.0448149592878       -0.0000000000000000        0.0000000000000000     
   1520.0448149592878       -0.0000000000000000        0.0000000000000000     
   1520.0448149592878       -0.0000000000000000        0.0000000000000000     
   1520.0448149592878       -0.0000000000000000        0.0000000000000000     
   1520.0448149592878       -0.0000000000000000       -0.0000000000000000     
   1520.0448149592878       -0.0000000000000000       -0.0000000000000000     
   1520.0448149592878       -0.0000000000000000       -0.0000000000000000     
   1520.0448149592878       -0.0000000000000000       -0.0000000000000000     
   1520.0448149592878       -0.0000000000000000       -0.0000000000000000     
   1520.0448149592878       -0.0000000000000000       -0.0000000000000000     
   1520.0448149592878       -0.0000000000000000       -0.0000000000000000     
   1520.0448149592878       -0.0000000000000000       -0.0000000000000000     
   1520.0448149592878       -0.0000000000000000       -0.0000000000000000     
   1520.0448149592878       -0.0000000000000000       -0.0000000000000000     
   1520.0448149592878       -0.0000000000000000       -0.0000000000000000     
   1520.0448149592878       -0.0000000000000000       -0.0000000000000000     
   1520.0448149592878       -0.0000000000000000       -0.0000000000000000     
   1520.0448149592878       -0.0000000000000000       -0.0000000000000000     
   1520.0448149592878       -0.0000000000000000       -0.0000000000000000     
   1520.0448149592878       -0.0000000000000000       -0.0000000000000000     
   1520.0448149592878       -0.0000000000000000       -0.0000000000000000     
   1520.0448149592878       -0.0000000000000000       -0.0000000000000000     
   1520.0448149592878       -0.0000000000000000       -0.0000000000000000     
   1520.0448149592878       -0.0000000000000000       -0.0000000000000000     
   1520.0448149592878       -0.0000000000000000       -0.0000000000000000     
   1520.0448149592878       -0.0000000000000000       -0.0000000000000000     
   1520.0448149592878       -0.0000000000000000       -0.0000000000000000     
   1520.0448149592878       -0.0000000000000000       -0.0000000000000000     
   1520.0448149592878       -0.0000000000000000       -0.0000000000000000     
   1520.0448149592878       -0.0000000000000000       -0.0000000000000000     
   1520.0448149592878       -0.0000000000000000       -0.0000000000000000     
   1520.0448149592878       -0.0000000000000000       -0.0000000000000000     
   1520.0448149592878       -0.0000000000000000       -0.0000000000000000     
   1520.0448149592878       -0.0000000000000000       -0.0000000000000000     
   1520.0448149592878       -0.0000000000000000       -0.0000000000000000     
   1520.0448149592878       -0.0000000000000000       -0.0000000000000000     
   1520.0448149592878       -0.0000000000000000       -0.0000000000000000     
   1520.0448149592878       -0.0000000000000000       -0.0000000000000000     
   1520.0448149592878       -0.0000000000000000       -0.0000000000000000     
   1520.0448149592878       -0.0000000000000000       -0.0000000000000000     
   1520.0448149592878       -0.0000000000000000       -0.0000000000000000     
   1520.0448149592878       -0.0000000000000000       -0.0000000000000000     
   1520.0448149592878       -0.0000000000000000       -0.0000000000000000     
   1520.0448149592878       -0.0000000000000000       -0.0000000000000000     
   1520.0448149592878       -0.0000000000000000       -0.0000000000000000     
   1520.0448149592878       -0.0000000000000000       -0.0000000000000000     
   1520.0448149592878       -0.0000000000000000       -0.0000000000000000     
   1520.0448149592878       -0.0000000000000000       -0.0000000000000000     
   1520.0448149592878       -0.0000000000000000       -0.0000000000000000     
   1520.0448149592878       -0.0000000000000000       -0.0000000000000000     
   1520.0448149592878       -0.0000000000000000       -0.0000000000000000     
   1520.0448149592878       -0.0000000000000000       -0.0000000000000000     
   1520.0448149592878       -0.0000000000000000       -0.0000000000000000     
   1520.0448149592878       -0.0000000000000000       -0.0000000000000000     
   1520.0448149592878        0.0000000000000000       -0.0000000000000000     
   1520.0448149592878        0.0000000000000000       -0.0000000000000000     
   1520.0448149592878        0.0000000000000000       -0.0000000000000000     
   1520.0448149592878        0.0000000000000000       -0.0000000000000000     
   1520.0448149592878        0.0000000000000000       -0.0000000000000000     
   1520.0448149592878        0.0000000000000000       -0.0000000000000000     
   1520.0448149592878        0.0000000000000000       -0.0000000000000000     
   1520.0448149592878        0.0000000000000000       -0.0000000000000000     
   1520.0448149592878        0.0000000000000000       -0.0000000000000000     
   1520.0448149592878        0.0000000000000000       -0.0000000000000000     
   1520.0448149592878        0.0000000000000000       -0.0000000000000000     
   1520.0448149592878        0.0000000000000000       -0.0000000000000000     
   1520.0448149592878        0.0000000000000000       -0.0000000000000000     
   1520.0448149592878        0.0000000000000000       -0.0000000000000000     
   1520.0448149592878        0.0000000000000000       -0.0000000000000000     
   1520.0448149592878        0.0000000000000000       -0.0000000000000000     
   1520.0448149592878        0.0000000000000000       -0.0000000000000000     
   1520.0448149592878        0.0000000000000000       -0.0000000000000000     
   1520.0448149592878        0.0000000000000000       -0.0000000000000000     
   1520.0448149592878        0.0000000000000000       -0.0000000000000000     
   1520.0448149592878        0.0000000000000000       -0.0000000000000000     
   1520.0448149592878        0.0000000000000000       -0.0000000000000000     
   1520.0448149592878        0.0000000000000000       -0.0000000000000000     
   1520.0448149592878        0.0000000000000000       -0.0000000000000000     
   1520.0448149592878        0.0000000000000000       -0.0000000000000000     
   1520.0448149592878        0.0000000000000000       -0.0000000000000000     
   1520.0448149592878        0.0000000000000000       -0.0000000000000000     
   1520.0448149592878        0.0000000000000000       -0.0000000000000000     
   1520.0448149592878        0.0000000000000000       -0.0000000000000000     
   1520.0448149592878        0.0000000000000000       -0.0000000000000000     
   1520.0448149592878        0.0000000000000000       -0.0000000000000000     
   1520.0448149592878        0.0000000000000000       -0.0000000000000000     
   1520.0448149592878        0.0000000000000000       -0.0000000000000000     
   1520.0448149592878        0.0000000000000000       -0.0000000000000000     
   1520.0448149592878        0.0000000000000000       -0.0000000000000000     
   1520.0448149592878        0.0000000000000000       -0.0000000000000000     
   1520.0448149592878        0.0000000000000000       -0.0000000000000000     
   1520.0448149592878        0.0000000000000000       -0.0000000000000000     
   1520.0448149592878        0.0000000000000000       -0.0000000000000000     
   1520.0448149592878        0.0000000000000000       -0.0000000000000000     
   1520.0448149592878        0.0000000000000000       -0.0000000000000000     
   1520.0448149592878        0.0000000000000000       -0.0000000000000000     
   1520.0448149592878        0.0000000000000000       -0.0000000000000000     
   1520.0448149592878        0.0000000000000000       -0.0000000000000000     
   1520.0448149592878        0.0000000000000000       -0.0000000000000000     
   1520.0448149592878        0.0000000000000000       -0.0000000000000000     
   1520.0448149592878        0.0000000000000000       -0.0000000000000000     
   1520.0448149592878        0.0000000000000000       -0.0000000000000000     
   1520.0448149592878        0.0000000000000000       -0.0000000000000000     
   1520.0448149592878        0.0000000000000000       -0.0000000000000000     
   1520.0448149592878        0.0000000000000000        0.0000000000000000     
   1507.3768477725725        47.371225845692003        0.0000000000000000     
   1507.4226652608420        47.349290167421451        1.4880113897653153     
   1507.4818486227409        47.281042825693689        2.9746710767842788     
   1507.5546208192789        47.166552617490979        4.4585519231352064     
   1507.6411839610080        47.005931176222163        5.9382300687730796     
   1507.7417180218633        46.799332785254634        7.4122861307547740     
   1507.8563796044452        46.546954165266833        8.8793063892252579     
   1507.9853007620682        46.249034236558188        10.337883960288391     
   1508.1285878827630        45.905853857369287        11.786619955991720     
   1508.2863206402294        45.517735539169564        13.224124631750495     
   1508.4585510165271        45.085043139765595        14.649018521621146     
   1508.6453024011050        44.608181534971749        16.059933561908053     
   1508.8465687705072        44.087596269465323        17.455514203648519     
   1509.0623139528761        43.523773187324529        18.834418514569126     
   1509.2924709810702        42.917238042617612        20.195319271140971     
   1509.5369415379748        42.268556090280427        21.536905041382262     
   1509.7955954972617        41.578331657384759        22.857881259062992     
   1510.0682705625582        40.847207694765828        24.156971289958239     
   1510.3547720076488        40.075865308843191        25.432917490774052     
   1510.6548725200309        39.265023273338734        26.684482261332960     
   1510.9683121497480        38.415437520466796        27.910449090554366     
   1511.2947983651150        37.527900611049446        29.109623596699919     
   1511.6340062165484        36.603241182893640        30.280834562275093     
   1511.9855786093419        35.642323376657792        31.422934963885652     
   1512.3491266858541        34.646046238336567        32.534802997244270     
   1512.7242303171515        33.615343097402253        33.615343097405734     
   1513.1104387037681        32.551180919563784        34.663486954183263     
   1513.5072710848276        31.454559633037992        35.678194522562436     
   1513.9142175543525        30.326511427175845        36.658455027784079     
   1514.3307399831770        29.168100022247778        37.603287964616328     
   1514.7562730444479        27.980419909169406        38.511744090177480     
   1515.1902253402966        26.764595557941352        39.382906409509772     
   1515.6319806268189        25.521780593585497        40.215891152937679     
   1516.0808991341130        24.253156938385729        41.009848744078177     
   1516.5363189776854        22.959933919283152        41.763964757202515     
   1516.9975576571485        21.643347339335246        42.477460862483895     
   1517.4639136377327        20.304658512224655        43.149595757502915     
   1517.9346680097319        18.945153258896351        43.779666083224683     
   1518.4090862206613        17.566140865511752        44.367007322511220     
   1518.8864198745043        16.168953002033383        44.910994679088404     
   1519.3659085921176        14.754942600895321        45.411043934754140     
   1519.8467819265254        13.325482695369647        45.866612282491843     
   1520.3282613265226        11.881965217408354        46.277199133042984     
   1520.8095621417533        10.425799754922014        46.642346892397420     
   1521.2898956621425        8.9584122686491519        46.961641707578686     
   1521.7684711843710        7.4812437689734805        47.234714178038033     
   1522.2444980978576        5.9957489532572099        47.461240029923651     
   1522.7171879825696        4.5033948044772991        47.640940750463329     
   1523.1857567108364        3.0056591521746148        47.773584179689315     
   1523.6494265452632        1.5040291969531761        47.858985056744892     
   1524.1074282247673       -4.9531037512583078E-012   47.897005518042405     
   1524.5590030307435       -1.5049270607151941        47.887555544593141     
   1525.0034048254006       -3.0092458655363776        47.830593355902167     
   1525.4399020543347       -4.5114471575450121        47.726125747911105     
   1525.8677797055341       -6.0100201737797514        47.574208372585375     
   1526.2863412171439       -7.5034543007900156        47.374945956873020     
   1526.6949103264751       -8.9902407517240039        47.128492458912490     
   1527.0928328529915       -10.468874262004814        46.835051159535503     
   1527.4794784082469       -11.937854800469623        46.494874687296033     
   1527.8542420260562       -13.395689292688227        46.108264975457992     
   1528.2165457064932       -14.840893353034643        45.675573149589049     
   1528.5658398677092       -16.271993021960753        45.197199344636928     
   1528.9016046999459       -17.687526504815249        44.673592450604154     
   1529.2233514165528       -19.086045908464502        44.105249786185929     
   1529.5306233973017       -20.466118971907335        43.492716699993018     
   1529.8229972197428       -21.826330787031115        42.836586099243533     
   1530.1000835749060       -23.165285505634902        42.137497906074223     
   1530.3615280641420       -24.481608028845105        41.396138441888894     
   1530.6070118744722       -25.773945675071413        40.613239740429421     
   1530.8362523303756       -27.040969822695153        39.789578790519947     
   1531.0490033204997       -28.281377523747700        38.925976709694304     
   1531.2450555983860       -29.493893084924210        38.023297850172071     
   1531.4242369568581       -30.677269612385036        37.082448838892958     
   1531.5864122763148       -31.830290516924311        36.104377553555366     
   1531.7314834477440       -32.951770976230570        35.090072036828452     
   1531.8593891718342       -34.040559351127008        34.040559351116428     
   1531.9701046361276       -35.095538552856922        32.956904376449835     
   1532.0636410726763       -36.115627358672668        31.840208554256243     
   1532.1400451992181       -37.099781673191764        30.691608579925248     
   1532.1993985473475       -38.046995733199296        29.512275047224779     
   1532.2418166816624       -38.956303253801224        28.303411047750359     
   1532.2674483143089       -39.826778514065516        27.066250728692825     
   1532.2764743197447       -40.657537380524978        25.802057812294034     
   1532.2691066549623       -41.447738267157575        24.512124080424154     
   1532.2455871907302       -42.196583030701539        23.197767827757122     
   1532.2061864597599       -42.903317800405489        21.860332287044439     
   1532.1512023279713       -43.567233741553224        20.501184029990682     
   1532.0809585952773       -44.187667752338982        19.121711347218106     
   1531.9958035325196       -44.764003093899333        17.723322610773160     
   1531.8961083613660       -45.295669953531167        16.307444622575627     
   1531.7822656840990       -45.782145941339479        14.875520952141175     
   1531.6546878703216       -46.222956520762914        13.429010266823846     
   1531.5138054076961       -46.617675373618901        11.969384657725131     
   1531.3600652238022       -46.965924700489886        10.498127964303350     
   1531.1939289862444       -47.267375457440586        9.0167341005927550     
   1531.0158713880544       -47.521747530208977        7.5267053858064852     
   1530.8263784253800       -47.728809847152441        6.0295508819536217     
   1530.6259456743319       -47.888380432353912        4.5267847409490880     
   1530.4150765737386       -48.000326400400802        3.0199245635380261     
   1530.1942807203729       -48.064563894440930        1.5104897721944979     
   1529.9640721830619       -48.081057969196969       -9.9442738023356545E-012
   1529.7249678418309       -48.049822420680144       -1.5100265027381190     
   1529.4774857580614       -47.970919564390549       -3.0180744422553860     
   1529.2221435813381       -47.844459963820192       -4.5226330343341932     
   1528.9594569984249       -47.670602111091490       -6.0221975348563319     
   1528.6899382295171       -47.449552061564546       -7.5152707469314270     
   1528.4140945766248       -47.181563024235807       -9.0003645035020075     
   1528.1324270286377       -46.866934909725678       -10.476001124551500     
   1527.8454289272986       -46.506013837617644       -11.940714848168929     
   1527.5535846980131       -46.099191604864771       -13.393053234854991     
   1527.2573686490684       -45.646905116923627       -14.831578544574610     
   1526.9572438425303       -45.149635783211352       -16.254869086172686     
   1526.6536610397302       -44.607908878409269       -17.661520538870732     
   1526.3470577239477       -44.022292871058866       -19.050147245652767     
   1526.0378572025320       -43.393398720811760       -20.419383478427918     
   1525.7264677904004       -42.721879145608717       -21.767884674925750     
   1525.4132820765046       -42.008427859971547       -23.094328647336859     
   1525.0986762745358       -41.253778785500288       -24.397416762756823     
   1524.7830096588284       -40.458705234575355       -25.675875095525804     
   1524.4666240860827       -39.624019068171421       -26.928455551578800     
   1524.1498436032468       -38.750569828600170       -28.153936964934143     
   1523.8329741415607       -37.839243847909749       -29.351126166448896     
   1523.5163032964990       -36.890963332584661       -30.518859024962250     
   1523.2001001930266       -35.906685425109295       -31.656001460928941     
   1522.8846154353337       -34.887401242883406       -32.761450432619242     
   1522.5700811399006       -33.834134894908246       -33.834134894925754     
   1522.2567110505036       -32.747942476600109       -34.873016730775333     
   1521.9447007335043       -31.629911043033136       -35.877091655094915     
   1521.6342278515003       -30.481157560865658       -36.845390091224303     
   1521.3254525131872       -29.302827839166167       -37.776978019609075     
   1521.0185176970401       -28.096095439325289       -38.670957798541792     
   1520.7135497461782       -26.862160564218449       -39.526468956651847     
   1520.4106589315879       -25.602248926774504       -40.342688956773962     
   1520.1099400806372       -24.317610598101457       -41.118833930754342     
   1519.8114732676377       -23.009518835330745       -41.854159384680607     
   1519.5153245629938       -21.679268889356379       -42.547960873951212     
   1519.2215468373192       -20.328176792674725       -43.199574647529168     
   1518.9301806167086       -18.957578127564311       -43.808378260658628     
   1518.6412549851916       -17.568826774892429       -44.373791155257585     
   1518.3547885302626       -16.163293643887116       -44.895275207141729     
   1518.0707903271975       -14.742365383276812       -45.372335239178064     
   1517.7892609577859       -13.307443074267869       -45.804519499420344     
   1517.5101935589387       -11.859940905908662       -46.191420103234400     
   1517.2335748965713       -10.401284833470198       -46.532673438388890     
   1516.9593864600317       -8.9329112205642272       -46.827960532059159     
   1516.6876055722737       -7.4562654658110228       -47.077007378674978     
   1516.4182065109201       -5.9728006149696879       -47.279585227534412     
   1516.1511616352982       -4.4839759595422937       -47.435510829107173     
   1515.8864425144766       -2.9912556229679921       -47.544646638961595     
   1515.6240210513586       -1.4961071356279592       -47.606900978271867     
   1515.3638705978206        1.4795214307878840E-011  -47.622228149892585     
   1515.1059670559455        1.4955957527099937       -47.590628509031554     
   1514.8502899604096        2.9892110126186093       -47.512148487603852     
   1514.5968235371229        4.4793790467825376       -47.386880571413890     
   1514.3455577332988        5.9646369581394358       -47.214963229385638     
   1514.0964892142142        7.4435271462630235       -46.996580794145501     
   1513.8496223220016        8.9145987679264813       -46.731963293353971     
   1513.6049699919665        10.376409195505364       -46.421386231286192     
   1513.3625546220342        11.827525471168157       -46.065170320270560     
   1513.1224088911079        13.266525754737520       -45.663681161714180     
   1512.8845765222832        14.692000763054606       -45.217328876568480     
   1512.6491129870590        16.102555198633077       -44.726567685220637     
   1512.4160861469149        17.496809165359249       -44.191895436933329     
   1512.1855768288265        18.873399568971731       -43.613853089096324     
   1511.9576793315575        20.230981500044393       -42.993024136698637     
   1511.7325018598233        21.568229597199995       -42.330033992576062     
   1511.5101668836855        22.883839388294152       -41.625549319137697     
   1511.2908114208572        24.176528607338934       -40.880277312422471     
   1511.0745872398677        25.445038484972038       -40.094964939483866     
   1510.8616609823684        26.688135010332022       -39.270398130244523     
   1510.6522142032027        27.904610162261992       -38.407400925105200     
   1510.4464433271512        29.093283107841884       -37.506834579726046     
   1510.2445595216620        30.253001366335607       -36.569596628531457     
   1510.0467884851932        31.382641936739805       -35.596619908611054     
   1509.8533701511262        32.481112387227405       -34.588871545806050     
   1509.6645583076354        33.547351904901269       -33.547351904876969     
   1509.4806201341662        34.580332304397118       -32.473093505745005     