 VARIABLES = "x_1", "x_2", "x_3"
 ZONE F = POINT , I =         201  , J =         101
   534.00533980161890        0.0000000000000000        0.0000000000000000     
   533.99796647934170        0.0000000000000000        0.0000000000000000     
   533.99010025787118        0.0000000000000000        0.0000000000000000     
   533.98177224481196        0.0000000000000000        0.0000000000000000     
   533.97301536947668        0.0000000000000000        0.0000000000000000     
   533.96386425194248        0.0000000000000000        0.0000000000000000     
   533.95435506546403        0.0000000000000000        0.0000000000000000     
   533.94452539279973        0.0000000000000000        0.0000000000000000     
   533.93441407703267        0.0000000000000000        0.0000000000000000     
   533.92406106748888        0.0000000000000000        0.0000000000000000     
   533.91350726137273        0.0000000000000000        0.0000000000000000     
   533.90279434175648        0.0000000000000000        0.0000000000000000     
   533.89196461257256        0.0000000000000000        0.0000000000000000     
   533.88106083126615        0.0000000000000000        0.0000000000000000     
   533.87012603977826        0.0000000000000000        0.0000000000000000     
   533.85920339452628        0.0000000000000000        0.0000000000000000     
   533.84833599605918        0.0000000000000000        0.0000000000000000     
   533.83756671905667        0.0000000000000000        0.0000000000000000     
   533.82693804334519        0.0000000000000000        0.0000000000000000     
   533.81649188659014        0.0000000000000000        0.0000000000000000     
   533.80626943932259        0.0000000000000000        0.0000000000000000     
   533.79631100294273        0.0000000000000000        0.0000000000000000     
   533.78665583133045        0.0000000000000000        0.0000000000000000     
   533.77734197667735        0.0000000000000000        0.0000000000000000     
   533.76840614013918        0.0000000000000000        0.0000000000000000     
   533.75988352788102        0.0000000000000000        0.0000000000000000     
   533.75180771307316        0.0000000000000000        0.0000000000000000     
   533.74421050436536        0.0000000000000000        0.0000000000000000     
   533.73712182134364        0.0000000000000000        0.0000000000000000     
   533.73056957744609        0.0000000000000000        0.0000000000000000     
   533.72457957078302        0.0000000000000000        0.0000000000000000     
   533.71917538327887        0.0000000000000000        0.0000000000000000     
   533.71437828851617        0.0000000000000000        0.0000000000000000     
   533.71020716863336        0.0000000000000000        0.0000000000000000     
   533.70667844058983        0.0000000000000000        0.0000000000000000     
   533.70380599207670        0.0000000000000000        0.0000000000000000     
   533.70160112731560        0.0000000000000000        0.0000000000000000     
   533.70007252295102        0.0000000000000000        0.0000000000000000     
   533.69922619419947        0.0000000000000000        0.0000000000000000     
   533.69906547138532        0.0000000000000000        0.0000000000000000     
   533.69959098695165        0.0000000000000000        0.0000000000000000     
   533.70080067299284        0.0000000000000000        0.0000000000000000     
   533.70268976932016        0.0000000000000000        0.0000000000000000     
   533.70525084203064        0.0000000000000000        0.0000000000000000     
   533.70847381250530        0.0000000000000000        0.0000000000000000     
   533.71234599673301        0.0000000000000000        0.0000000000000000     
   533.71685215480841        0.0000000000000000        0.0000000000000000     
   533.72197455041771        0.0000000000000000        0.0000000000000000     
   533.72769302008965        0.0000000000000000        0.0000000000000000     
   533.73398505194837        0.0000000000000000        0.0000000000000000     
   533.74082587366991       -0.0000000000000000        0.0000000000000000     
   533.74818854931186       -0.0000000000000000        0.0000000000000000     
   533.75604408464551       -0.0000000000000000        0.0000000000000000     
   533.76436154059263       -0.0000000000000000        0.0000000000000000     
   533.77310815433304       -0.0000000000000000        0.0000000000000000     
   533.78224946762055       -0.0000000000000000        0.0000000000000000     
   533.79174946181956       -0.0000000000000000        0.0000000000000000     
   533.80157069913912       -0.0000000000000000        0.0000000000000000     
   533.81167446952679       -0.0000000000000000        0.0000000000000000     
   533.82202094265131       -0.0000000000000000        0.0000000000000000     
   533.83256932439167       -0.0000000000000000        0.0000000000000000     
   533.84327801722088       -0.0000000000000000        0.0000000000000000     
   533.85410478386598       -0.0000000000000000        0.0000000000000000     
   533.86500691360209       -0.0000000000000000        0.0000000000000000     
   533.87594139053499       -0.0000000000000000        0.0000000000000000     
   533.88686506320755       -0.0000000000000000        0.0000000000000000     
   533.89773481486850       -0.0000000000000000        0.0000000000000000     
   533.90850773372586       -0.0000000000000000        0.0000000000000000     
   533.91914128251960       -0.0000000000000000        0.0000000000000000     
   533.92959346673297       -0.0000000000000000        0.0000000000000000     
   533.93982300077823       -0.0000000000000000        0.0000000000000000     
   533.94978947149264       -0.0000000000000000        0.0000000000000000     
   533.95945349829026       -0.0000000000000000        0.0000000000000000     
   533.96877688932773       -0.0000000000000000        0.0000000000000000     
   533.97772279305491       -0.0000000000000000        0.0000000000000000     
   533.98625584454135       -0.0000000000000000        0.0000000000000000     
   533.99434230598376       -0.0000000000000000        0.0000000000000000     
   534.00195020082867       -0.0000000000000000        0.0000000000000000     
   534.00904944096328       -0.0000000000000000        0.0000000000000000     
   534.01561194645774       -0.0000000000000000        0.0000000000000000     
   534.02161175736978       -0.0000000000000000        0.0000000000000000     
   534.02702513715644       -0.0000000000000000        0.0000000000000000     
   534.03183066726695       -0.0000000000000000        0.0000000000000000     
   534.03600933253244       -0.0000000000000000        0.0000000000000000     
   534.03954459699844       -0.0000000000000000        0.0000000000000000     
   534.04242246989054       -0.0000000000000000        0.0000000000000000     
   534.04463156144072       -0.0000000000000000        0.0000000000000000     
   534.04616312834594       -0.0000000000000000        0.0000000000000000     
   534.04701110866870       -0.0000000000000000        0.0000000000000000     
   534.04717214603829       -0.0000000000000000        0.0000000000000000     
   534.04664560305059       -0.0000000000000000        0.0000000000000000     
   534.04543356381464       -0.0000000000000000        0.0000000000000000     
   534.04354082562998       -0.0000000000000000        0.0000000000000000     
   534.04097487983449       -0.0000000000000000        0.0000000000000000     
   534.03774588189845       -0.0000000000000000        0.0000000000000000     
   534.03386661088973       -0.0000000000000000        0.0000000000000000     
   534.02935241847649       -0.0000000000000000        0.0000000000000000     
   534.02422116767900       -0.0000000000000000        0.0000000000000000     
   534.01849316161986       -0.0000000000000000        0.0000000000000000     
   534.01219106257008       -0.0000000000000000        0.0000000000000000     
   534.00533980161879       -0.0000000000000000       -0.0000000000000000     
   533.99796647934170       -0.0000000000000000       -0.0000000000000000     
   533.99010025787106       -0.0000000000000000       -0.0000000000000000     
   533.98177224481185       -0.0000000000000000       -0.0000000000000000     
   533.97301536947657       -0.0000000000000000       -0.0000000000000000     
   533.96386425194237       -0.0000000000000000       -0.0000000000000000     
   533.95435506546403       -0.0000000000000000       -0.0000000000000000     
   533.94452539279962       -0.0000000000000000       -0.0000000000000000     
   533.93441407703267       -0.0000000000000000       -0.0000000000000000     
   533.92406106748888       -0.0000000000000000       -0.0000000000000000     
   533.91350726137273       -0.0000000000000000       -0.0000000000000000     
   533.90279434175648       -0.0000000000000000       -0.0000000000000000     
   533.89196461257256       -0.0000000000000000       -0.0000000000000000     
   533.88106083126615       -0.0000000000000000       -0.0000000000000000     
   533.87012603977814       -0.0000000000000000       -0.0000000000000000     
   533.85920339452628       -0.0000000000000000       -0.0000000000000000     
   533.84833599605918       -0.0000000000000000       -0.0000000000000000     
   533.83756671905667       -0.0000000000000000       -0.0000000000000000     
   533.82693804334508       -0.0000000000000000       -0.0000000000000000     
   533.81649188659003       -0.0000000000000000       -0.0000000000000000     
   533.80626943932248       -0.0000000000000000       -0.0000000000000000     
   533.79631100294273       -0.0000000000000000       -0.0000000000000000     
   533.78665583133045       -0.0000000000000000       -0.0000000000000000     
   533.77734197667735       -0.0000000000000000       -0.0000000000000000     
   533.76840614013906       -0.0000000000000000       -0.0000000000000000     
   533.75988352788102       -0.0000000000000000       -0.0000000000000000     
   533.75180771307316       -0.0000000000000000       -0.0000000000000000     
   533.74421050436524       -0.0000000000000000       -0.0000000000000000     
   533.73712182134364       -0.0000000000000000       -0.0000000000000000     
   533.73056957744609       -0.0000000000000000       -0.0000000000000000     
   533.72457957078302       -0.0000000000000000       -0.0000000000000000     
   533.71917538327875       -0.0000000000000000       -0.0000000000000000     
   533.71437828851617       -0.0000000000000000       -0.0000000000000000     
   533.71020716863336       -0.0000000000000000       -0.0000000000000000     
   533.70667844058983       -0.0000000000000000       -0.0000000000000000     
   533.70380599207658       -0.0000000000000000       -0.0000000000000000     
   533.70160112731560       -0.0000000000000000       -0.0000000000000000     
   533.70007252295113       -0.0000000000000000       -0.0000000000000000     
   533.69922619419947       -0.0000000000000000       -0.0000000000000000     
   533.69906547138532       -0.0000000000000000       -0.0000000000000000     
   533.69959098695153       -0.0000000000000000       -0.0000000000000000     
   533.70080067299261       -0.0000000000000000       -0.0000000000000000     
   533.70268976932016       -0.0000000000000000       -0.0000000000000000     
   533.70525084203064       -0.0000000000000000       -0.0000000000000000     
   533.70847381250530       -0.0000000000000000       -0.0000000000000000     
   533.71234599673312       -0.0000000000000000       -0.0000000000000000     
   533.71685215480841       -0.0000000000000000       -0.0000000000000000     
   533.72197455041771       -0.0000000000000000       -0.0000000000000000     
   533.72769302008976       -0.0000000000000000       -0.0000000000000000     
   533.73398505194837       -0.0000000000000000       -0.0000000000000000     
   533.74082587366991        0.0000000000000000       -0.0000000000000000     
   533.74818854931186        0.0000000000000000       -0.0000000000000000     
   533.75604408464562        0.0000000000000000       -0.0000000000000000     
   533.76436154059274        0.0000000000000000       -0.0000000000000000     
   533.77310815433304        0.0000000000000000       -0.0000000000000000     
   533.78224946762077        0.0000000000000000       -0.0000000000000000     
   533.79174946181956        0.0000000000000000       -0.0000000000000000     
   533.80157069913935        0.0000000000000000       -0.0000000000000000     
   533.81167446952679        0.0000000000000000       -0.0000000000000000     
   533.82202094265142        0.0000000000000000       -0.0000000000000000     
   533.83256932439167        0.0000000000000000       -0.0000000000000000     
   533.84327801722100        0.0000000000000000       -0.0000000000000000     
   533.85410478386598        0.0000000000000000       -0.0000000000000000     
   533.86500691360231        0.0000000000000000       -0.0000000000000000     
   533.87594139053510        0.0000000000000000       -0.0000000000000000     
   533.88686506320778        0.0000000000000000       -0.0000000000000000     
   533.89773481486850        0.0000000000000000       -0.0000000000000000     
   533.90850773372586        0.0000000000000000       -0.0000000000000000     
   533.91914128251960        0.0000000000000000       -0.0000000000000000     
   533.92959346673319        0.0000000000000000       -0.0000000000000000     
   533.93982300077846        0.0000000000000000       -0.0000000000000000     
   533.94978947149275        0.0000000000000000       -0.0000000000000000     
   533.95945349829026        0.0000000000000000       -0.0000000000000000     
   533.96877688932761        0.0000000000000000       -0.0000000000000000     
   533.97772279305502        0.0000000000000000       -0.0000000000000000     
   533.98625584454135        0.0000000000000000       -0.0000000000000000     
   533.99434230598376        0.0000000000000000       -0.0000000000000000     
   534.00195020082867        0.0000000000000000       -0.0000000000000000     
   534.00904944096339        0.0000000000000000       -0.0000000000000000     
   534.01561194645785        0.0000000000000000       -0.0000000000000000     
   534.02161175737001        0.0000000000000000       -0.0000000000000000     
   534.02702513715644        0.0000000000000000       -0.0000000000000000     
   534.03183066726695        0.0000000000000000       -0.0000000000000000     
   534.03600933253244        0.0000000000000000       -0.0000000000000000     
   534.03954459699844        0.0000000000000000       -0.0000000000000000     
   534.04242246989031        0.0000000000000000       -0.0000000000000000     
   534.04463156144072        0.0000000000000000       -0.0000000000000000     
   534.04616312834605        0.0000000000000000       -0.0000000000000000     
   534.04701110866881        0.0000000000000000       -0.0000000000000000     
   534.04717214603818        0.0000000000000000       -0.0000000000000000     
   534.04664560305059        0.0000000000000000       -0.0000000000000000     
   534.04543356381464        0.0000000000000000       -0.0000000000000000     
   534.04354082562998        0.0000000000000000       -0.0000000000000000     
   534.04097487983449        0.0000000000000000       -0.0000000000000000     
   534.03774588189845        0.0000000000000000       -0.0000000000000000     
   534.03386661088962        0.0000000000000000       -0.0000000000000000     
   534.02935241847649        0.0000000000000000       -0.0000000000000000     
   534.02422116767889        0.0000000000000000       -0.0000000000000000     
   534.01849316161986        0.0000000000000000       -0.0000000000000000     
   534.01219106256997        0.0000000000000000       -0.0000000000000000     
   534.00533980161879        0.0000000000000000        0.0000000000000000     
   542.07845812815106        17.035501841505983        0.0000000000000000     
   541.97673826250059        17.023900751514319       0.53499763411272983     
   541.86730841801182        16.995263616979713        1.0692513553504093     
   541.75027234589777        16.949629799984550        1.6022117442843737     
   541.62573528150699        16.887056619814189        2.1333313665655051     
   541.49380339944128        16.807619238453832        2.6620653662705971     
   541.35458332390738        16.711410528199856        3.1878720517171049     
   541.20818170486848        16.598540922199074        3.7102134735638139     
   541.05470487011439        16.469138248667914        4.2285559951211820     
   540.89425856273056        16.323347549464536        4.7423708548888923     
   540.72694777259881        16.161330883591706        5.2511347214164745     
   540.55287666950312        15.983267116098721        5.7543302406428785     
   540.37214864419275        15.789351692731467        6.2514465759105535     
   540.18486646232168        15.579796400551725        6.7419799408665844     
   539.99113253462167        15.354829114616113        7.2254341254568271     
   539.79104930493440        15.114693530673671        7.7013210151876272     
   539.58471975590555        14.859648883714561        8.1691611037738241     
   539.37224803021070        14.589969652084049        8.6284839992115128     
   539.15374016320004        14.305945246770156        9.0788289232110682     
   538.92930492083474        14.007879685384760        9.5197452038018877     
   538.69905473477536        13.696091250289122        9.9507927607780289     
   538.46310672451818        13.370912130270369        10.371542583496391     
   538.22158379457198        13.032688045157347        10.781577200370538     
   537.97461579289779        12.681777852775364        11.180491139227556     
   537.72234071518483        12.318553137680810        11.567891377517624     
   537.46490593809324        11.943397781189876        11.943397781191113     
   537.20246946333805        11.556707512319939        12.306643530891051     
   536.93520115350304        11.158889439397697        12.657275533955584     
   536.66328393972356        10.750361562252408        12.994954820589738     
   536.38691498094136        10.331552265103475        13.319356922454462     
   536.10630675429491        9.9028997904661544        13.630172231837168     
   535.82168805637946        9.4648516946323067        13.927106339516273     
   535.53330489562347        9.0178642855314113        14.209880349415929     
   535.24142125684455        8.5624020440340285        14.478231168168621     
   534.94631972020125        8.0989370300206200        14.731911767764537     
   534.64830191820397        7.6279482747965774        14.970691419568327     
   534.34768881619379        7.1499211616833769        15.194355898125920     
   534.04482080370713        6.6653467968498905        15.402707653365200     
   533.74005758638566        6.1747213726606223        15.595565950012627     
   533.43377787055238        5.6785455260036546        15.772766973299960     
   533.12637883518062        5.1773236942148628        15.934163900316937     
   532.81827538873915        4.6715634713319316        16.079626936672824     
   532.50989921121322        4.1617749674879914        16.209043318455645     
   532.20169758447742        3.6484701742874379        16.322317279817472     
   531.89413201704372        3.1321623389932780        16.419369986859738     
   531.58767667201687        2.6133653502956471        16.500139438838371     
   531.28281660979405        2.0925931383244447        16.564580338046571     
   530.98004585960905        1.5703590914169503        16.612663930057050     
   530.67986533641010        1.0471754919554295        16.644377816308669     
   530.38278062172640       0.52355297335360507        16.659725741297972     
   530.08929962910418       -1.7227048762258228E-012   16.658727356879005     
   529.79993017634342      -0.52297762835179784        16.641417966379358     
   529.51517748811636       -1.0448772465378922        16.607848251402540     
   529.23554165359178       -1.5651997675224356        16.558083984303359     
   528.96151506441151       -2.0834500990011864        16.492205729391028     
   528.69357985874922       -2.5991375330186579        16.410308535933215     
   528.43220539724780       -3.1117761088689355        16.312501626002714     
   528.17784579636611       -3.6208849499269617        16.198908080126809     
   527.93093754408574       -4.1259885754043957        16.069664523570495     
   527.69189722205249       -4.6266171883529932        15.924920815909612     
   527.46111935705994       -5.1223069415411464        15.764839746333042     
   527.23897442334567       -5.6126001831003371        15.589596736857761     
   527.02580701551358       -6.0970456840732972        15.399379555352393     
   526.82193420999511       -6.5751988501901408        15.194388039948379     
   526.62764413088871       -7.0466219203500131        14.974833836079370     
   526.44319473378050       -7.5108841543911415        14.740940147035325     
   526.26881281877047       -7.9675620127900837        14.492941498553616     
   526.10469328145859       -8.4162393309410302        14.231083517602610     
   525.95099860808841       -8.8565074906282781        13.955622725149500     
   525.80785861845550       -9.2879655912205941        13.666826342350312     
   525.67537045757081       -9.7102206229870536        13.364972109261650     
   525.55359883446749       -10.122887644762738        13.050348114857199     
   525.44257650397878       -10.525589967982793        12.723252636841869     
   525.34230498481782       -10.917959348858869        12.383993989498135     
   525.25275550487424       -11.299636190197250        12.032890377576072     
   525.17387016235909       -11.670269754058674        11.670269754055049     
   525.10556328926930       -12.029518386140706        11.296469679463327     
   525.04772300164382       -12.377049752430903        10.911837180343783     
   525.00021291927624       -12.712541088338808        10.516728604401642     
   524.96287403591737       -13.035679460172679        10.111509469862813     
   524.93552671961299       -13.346162038489586        9.6965543066100306     
   524.91797282163691       -13.643696382520332        9.2722464867459884     
   524.90999787155761       -13.928000734559825        8.8389780423574216     
   524.91137333529912       -14.198804322924222        8.3971494684177763     
   524.92185891263807       -14.455847671813306        7.9471695089661196     
   524.94120485043663       -14.698882916184807        7.4894549249317910     
   524.96915424802660       -14.927674119550398        7.0244302422337208     
   525.00544533154903       -15.141997592444177        6.5525274790648531     
   525.04981367470384       -15.341642209196044        6.0741858515708280     
   525.10199434426795       -15.526409720565878        5.5898514574417781     
   525.16172394989360       -15.696115059761297        5.0999769372511521     
   525.22874257907119       -15.850586639371071        4.6050211136901495     
   525.30279559973872       -15.989666636798079        4.1054486091542985     
   525.38363531479058       -16.113211265867719        3.6017294424348734     
   525.47102245469750       -16.221091032417821        3.0943386055465325     
   525.56472749652676       -16.313190971841085        2.5837556219790407     
   525.66453179985638       -16.389410866746925        2.0704640878907221     
   525.77022855235953       -16.449665443132499        1.5549511979607678     
   525.88162352016138       -16.493884543696993        1.0377072577834558     
   525.99853560042777       -16.522013277194521       0.51922518481750823     
   526.12079717597805       -16.534012142993365       -3.4196157644119027E-012
   526.24825427400606       -16.529857130287382      -0.51947168783845221     
   526.38076653321343       -16.509539791683679       -1.0386922025081644     
   526.51820698576751       -16.473067291163680       -1.5571633239076126     
   526.66046166248429       -16.420462426677613       -2.0743868121634428     
   526.80742903145733       -16.351763627879716       -2.5898649305244836     
   526.95901928201033       -16.267024929739812       -3.1031009650953334     
   527.11515346730619       -16.166315922971599       -3.6135997396697817     
   527.27576252019367       -16.049721682396289       -4.1208681240908849     
   527.44078615790511       -15.917342674509582       -4.6244155347539593     
   527.61017169202103       -15.769294645638347       -5.1237544260719758     
   527.78387276069270       -15.605708492159630       -5.6184007719360940     
   527.96184800045762       -15.426730114308535       -6.1078745364221572     
   528.14405967510231       -15.232520255122946       -6.5917001332125453     
   528.33047227892973       -15.023254326063350       -7.0694068734171758     
   528.52105113147877       -14.799122220806233       -7.5405294016837194     
   528.71576098023309       -14.560328118641717       -8.0046081206810378     
   528.91456462718247       -14.307090278813652       -8.4611896042184682     
   529.11742159423102       -14.039640827024598       -8.9098269994232986     
   529.32428684146180       -13.758225535194120       -9.3500804185376314     
   529.53510955112756       -13.463103595408654       -9.7815173210113784     
   529.74983198901214       -13.154547388839534       -10.203712886659293     
   529.96838845347384       -12.832842250235613       -10.616250380715679     
   530.19070432109856       -12.498286228422856       -11.018721511660045     
   530.41669519644893       -12.151189843068234       -11.410726782701587     
   530.64626617193323       -11.791875837793299       -11.791875837799401     
   530.87931120234384       -11.420678929557143       -12.161787803061035     
   531.11571259715492       -11.037945554072225       -12.520091624305165     
   531.35534063223349       -10.644033606872300       -12.866426401496978     
   531.59805328122741       -10.239312179522390       -13.200441720669776     
   531.84369606556368       -9.8241612903478917       -13.521797983835242     
   532.09210202072950       -9.3989716089654110       -13.830166737261196     
   532.34309177532816       -8.9641441738234828       -14.125230998361330     
   532.59647373832968       -8.5200901019064670       -14.406685581300801     
   532.85204438894448       -8.0672302897221382       -14.674237421275480     
   533.10958866269300       -7.6059951046802139       -14.927605897276452     
   533.36888042647911       -7.1368240659777040       -15.166523153005310     
   533.62968303485968       -6.6601655141340013       -15.390734415465301     
   533.89174995918188       -6.1764762683656400       -15.599998310617968     
   534.15482548088778       -5.6862212710535971       -15.794087175369848     
   534.41864544002635       -5.1898732186360128       -15.972787365038526     
   534.68293802988046       -4.6879121783513700       -16.135899555345571     
   534.94742462860791       -4.1808251903626541       -16.283239037895555     
   535.21182065889650       -3.6691058549062516       -16.414636008027792     
   535.47583646685484       -3.1532539042315437       -16.529935843870341     
   535.73917821167606       -2.6337747592223897       -16.628999375385551     
   536.00154875803435       -2.1111790707213713       -16.711703142172365     
   536.26264856367004       -1.5859822457059098       -16.777939638782936     
   536.52217655520690       -1.0587039585931661       -16.827617546319122     
   536.77983098588538      -0.52986764807413922       -16.860661949097349     
   537.03531026959922        5.2433297774232643E-012  -16.877014535207167     
   537.28831378635732       0.53036958308667170       -16.876633779838013     
   537.53854265507096        1.0607095249349625       -16.859495110309140     
   537.78570047033509        1.5904866304422465       -16.825591051807269     
   538.02949400067382        2.1191666512952279       -16.774931352914280     
   538.26963384647729        2.6462148615275298       -16.707543090090404     
   538.50583505661348        3.1710966419198336       -16.623470750366121     
   538.73781770340474        3.6932780721602487       -16.522776291585998     
   538.96530741631989        4.2122265296398700       -16.405539179638609     
   539.18803587532966        4.7274112937290962       -16.271856402196629     
   539.40574126540901        5.2383041543623667       -16.121842458579628     
   539.61816869411382        5.7443800237475182       -15.955629325436673     
   539.82507057453029        6.2451175500137097       -15.773366398026695     
   540.02620697617226        6.7399997316144464       -15.575220406950599     
   540.22134594657552        7.2285145313102266       -15.361375310259440     
   540.41026380643416        7.7101554885676284       -15.132032160928240     
   540.59274542110779        8.1844223292251179       -14.887408949744756     
   540.76858445122980        8.6508215712922620       -14.627740423716661     
   540.93758358495461        9.1088671257642080       -14.353277880150724     
   541.09955475411505        9.5580808913496469       -14.064288936603122     
   541.25431933620325        9.9979933420238556       -13.761057276942630     
   541.40170834369565        10.428144106332143       -13.443882373808799     
   541.54156260175887        10.848082537378966       -13.113079187786264     
   541.67373291489093        11.257368272448026       -12.768977843655033     
   541.79808022250722        11.655571781205378       -12.411923284116563     
   541.91447574295114        12.042274901444852       -12.042274901436128     
   542.02280110486890        12.417071361340540       -11.660406147486547     