 VARIABLES = "x_1", "x_2", "x_3"
 ZONE F = POINT , I =         201  , J =         101
   6530.7933565997619        0.0000000000000000        0.0000000000000000     
   6530.7933565997619        0.0000000000000000        0.0000000000000000     
   6530.7933565997619        0.0000000000000000        0.0000000000000000     
   6530.7933565997619        0.0000000000000000        0.0000000000000000     
   6530.7933565997619        0.0000000000000000        0.0000000000000000     
   6530.7933565997619        0.0000000000000000        0.0000000000000000     
   6530.7933565997619        0.0000000000000000        0.0000000000000000     
   6530.7933565997619        0.0000000000000000        0.0000000000000000     
   6530.7933565997619        0.0000000000000000        0.0000000000000000     
   6530.7933565997619        0.0000000000000000        0.0000000000000000     
   6530.7933565997619        0.0000000000000000        0.0000000000000000     
   6530.7933565997619        0.0000000000000000        0.0000000000000000     
   6530.7933565997619        0.0000000000000000        0.0000000000000000     
   6530.7933565997619        0.0000000000000000        0.0000000000000000     
   6530.7933565997619        0.0000000000000000        0.0000000000000000     
   6530.7933565997619        0.0000000000000000        0.0000000000000000     
   6530.7933565997619        0.0000000000000000        0.0000000000000000     
   6530.7933565997619        0.0000000000000000        0.0000000000000000     
   6530.7933565997619        0.0000000000000000        0.0000000000000000     
   6530.7933565997619        0.0000000000000000        0.0000000000000000     
   6530.7933565997619        0.0000000000000000        0.0000000000000000     
   6530.7933565997619        0.0000000000000000        0.0000000000000000     
   6530.7933565997619        0.0000000000000000        0.0000000000000000     
   6530.7933565997619        0.0000000000000000        0.0000000000000000     
   6530.7933565997619        0.0000000000000000        0.0000000000000000     
   6530.7933565997619        0.0000000000000000        0.0000000000000000     
   6530.7933565997619        0.0000000000000000        0.0000000000000000     
   6530.7933565997619        0.0000000000000000        0.0000000000000000     
   6530.7933565997619        0.0000000000000000        0.0000000000000000     
   6530.7933565997619        0.0000000000000000        0.0000000000000000     
   6530.7933565997619        0.0000000000000000        0.0000000000000000     
   6530.7933565997619        0.0000000000000000        0.0000000000000000     
   6530.7933565997619        0.0000000000000000        0.0000000000000000     
   6530.7933565997619        0.0000000000000000        0.0000000000000000     
   6530.7933565997619        0.0000000000000000        0.0000000000000000     
   6530.7933565997619        0.0000000000000000        0.0000000000000000     
   6530.7933565997619        0.0000000000000000        0.0000000000000000     
   6530.7933565997619        0.0000000000000000        0.0000000000000000     
   6530.7933565997619        0.0000000000000000        0.0000000000000000     
   6530.7933565997619        0.0000000000000000        0.0000000000000000     
   6530.7933565997619        0.0000000000000000        0.0000000000000000     
   6530.7933565997619        0.0000000000000000        0.0000000000000000     
   6530.7933565997619        0.0000000000000000        0.0000000000000000     
   6530.7933565997619        0.0000000000000000        0.0000000000000000     
   6530.7933565997619        0.0000000000000000        0.0000000000000000     
   6530.7933565997619        0.0000000000000000        0.0000000000000000     
   6530.7933565997619        0.0000000000000000        0.0000000000000000     
   6530.7933565997619        0.0000000000000000        0.0000000000000000     
   6530.7933565997619        0.0000000000000000        0.0000000000000000     
   6530.7933565997619        0.0000000000000000        0.0000000000000000     
   6530.7933565997619       -0.0000000000000000        0.0000000000000000     
   6530.7933565997619       -0.0000000000000000        0.0000000000000000     
   6530.7933565997619       -0.0000000000000000        0.0000000000000000     
   6530.7933565997619       -0.0000000000000000        0.0000000000000000     
   6530.7933565997619       -0.0000000000000000        0.0000000000000000     
   6530.7933565997619       -0.0000000000000000        0.0000000000000000     
   6530.7933565997619       -0.0000000000000000        0.0000000000000000     
   6530.7933565997619       -0.0000000000000000        0.0000000000000000     
   6530.7933565997619       -0.0000000000000000        0.0000000000000000     
   6530.7933565997619       -0.0000000000000000        0.0000000000000000     
   6530.7933565997619       -0.0000000000000000        0.0000000000000000     
   6530.7933565997619       -0.0000000000000000        0.0000000000000000     
   6530.7933565997619       -0.0000000000000000        0.0000000000000000     
   6530.7933565997619       -0.0000000000000000        0.0000000000000000     
   6530.7933565997619       -0.0000000000000000        0.0000000000000000     
   6530.7933565997619       -0.0000000000000000        0.0000000000000000     
   6530.7933565997619       -0.0000000000000000        0.0000000000000000     
   6530.7933565997619       -0.0000000000000000        0.0000000000000000     
   6530.7933565997619       -0.0000000000000000        0.0000000000000000     
   6530.7933565997619       -0.0000000000000000        0.0000000000000000     
   6530.7933565997619       -0.0000000000000000        0.0000000000000000     
   6530.7933565997619       -0.0000000000000000        0.0000000000000000     
   6530.7933565997619       -0.0000000000000000        0.0000000000000000     
   6530.7933565997619       -0.0000000000000000        0.0000000000000000     
   6530.7933565997619       -0.0000000000000000        0.0000000000000000     
   6530.7933565997619       -0.0000000000000000        0.0000000000000000     
   6530.7933565997619       -0.0000000000000000        0.0000000000000000     
   6530.7933565997619       -0.0000000000000000        0.0000000000000000     
   6530.7933565997619       -0.0000000000000000        0.0000000000000000     
   6530.7933565997619       -0.0000000000000000        0.0000000000000000     
   6530.7933565997619       -0.0000000000000000        0.0000000000000000     
   6530.7933565997619       -0.0000000000000000        0.0000000000000000     
   6530.7933565997619       -0.0000000000000000        0.0000000000000000     
   6530.7933565997619       -0.0000000000000000        0.0000000000000000     
   6530.7933565997619       -0.0000000000000000        0.0000000000000000     
   6530.7933565997619       -0.0000000000000000        0.0000000000000000     
   6530.7933565997619       -0.0000000000000000        0.0000000000000000     
   6530.7933565997619       -0.0000000000000000        0.0000000000000000     
   6530.7933565997619       -0.0000000000000000        0.0000000000000000     
   6530.7933565997619       -0.0000000000000000        0.0000000000000000     
   6530.7933565997619       -0.0000000000000000        0.0000000000000000     
   6530.7933565997619       -0.0000000000000000        0.0000000000000000     
   6530.7933565997619       -0.0000000000000000        0.0000000000000000     
   6530.7933565997619       -0.0000000000000000        0.0000000000000000     
   6530.7933565997619       -0.0000000000000000        0.0000000000000000     
   6530.7933565997619       -0.0000000000000000        0.0000000000000000     
   6530.7933565997619       -0.0000000000000000        0.0000000000000000     
   6530.7933565997619       -0.0000000000000000        0.0000000000000000     
   6530.7933565997619       -0.0000000000000000        0.0000000000000000     
   6530.7933565997619       -0.0000000000000000        0.0000000000000000     
   6530.7933565997619       -0.0000000000000000       -0.0000000000000000     
   6530.7933565997619       -0.0000000000000000       -0.0000000000000000     
   6530.7933565997619       -0.0000000000000000       -0.0000000000000000     
   6530.7933565997619       -0.0000000000000000       -0.0000000000000000     
   6530.7933565997619       -0.0000000000000000       -0.0000000000000000     
   6530.7933565997619       -0.0000000000000000       -0.0000000000000000     
   6530.7933565997619       -0.0000000000000000       -0.0000000000000000     
   6530.7933565997619       -0.0000000000000000       -0.0000000000000000     
   6530.7933565997619       -0.0000000000000000       -0.0000000000000000     
   6530.7933565997619       -0.0000000000000000       -0.0000000000000000     
   6530.7933565997619       -0.0000000000000000       -0.0000000000000000     
   6530.7933565997619       -0.0000000000000000       -0.0000000000000000     
   6530.7933565997619       -0.0000000000000000       -0.0000000000000000     
   6530.7933565997619       -0.0000000000000000       -0.0000000000000000     
   6530.7933565997619       -0.0000000000000000       -0.0000000000000000     
   6530.7933565997619       -0.0000000000000000       -0.0000000000000000     
   6530.7933565997619       -0.0000000000000000       -0.0000000000000000     
   6530.7933565997619       -0.0000000000000000       -0.0000000000000000     
   6530.7933565997619       -0.0000000000000000       -0.0000000000000000     
   6530.7933565997619       -0.0000000000000000       -0.0000000000000000     
   6530.7933565997619       -0.0000000000000000       -0.0000000000000000     
   6530.7933565997619       -0.0000000000000000       -0.0000000000000000     
   6530.7933565997619       -0.0000000000000000       -0.0000000000000000     
   6530.7933565997619       -0.0000000000000000       -0.0000000000000000     
   6530.7933565997619       -0.0000000000000000       -0.0000000000000000     
   6530.7933565997619       -0.0000000000000000       -0.0000000000000000     
   6530.7933565997619       -0.0000000000000000       -0.0000000000000000     
   6530.7933565997619       -0.0000000000000000       -0.0000000000000000     
   6530.7933565997619       -0.0000000000000000       -0.0000000000000000     
   6530.7933565997619       -0.0000000000000000       -0.0000000000000000     
   6530.7933565997619       -0.0000000000000000       -0.0000000000000000     
   6530.7933565997619       -0.0000000000000000       -0.0000000000000000     
   6530.7933565997619       -0.0000000000000000       -0.0000000000000000     
   6530.7933565997619       -0.0000000000000000       -0.0000000000000000     
   6530.7933565997619       -0.0000000000000000       -0.0000000000000000     
   6530.7933565997619       -0.0000000000000000       -0.0000000000000000     
   6530.7933565997619       -0.0000000000000000       -0.0000000000000000     
   6530.7933565997619       -0.0000000000000000       -0.0000000000000000     
   6530.7933565997619       -0.0000000000000000       -0.0000000000000000     
   6530.7933565997619       -0.0000000000000000       -0.0000000000000000     
   6530.7933565997619       -0.0000000000000000       -0.0000000000000000     
   6530.7933565997619       -0.0000000000000000       -0.0000000000000000     
   6530.7933565997619       -0.0000000000000000       -0.0000000000000000     
   6530.7933565997619       -0.0000000000000000       -0.0000000000000000     
   6530.7933565997619       -0.0000000000000000       -0.0000000000000000     
   6530.7933565997619       -0.0000000000000000       -0.0000000000000000     
   6530.7933565997619       -0.0000000000000000       -0.0000000000000000     
   6530.7933565997619       -0.0000000000000000       -0.0000000000000000     
   6530.7933565997619       -0.0000000000000000       -0.0000000000000000     
   6530.7933565997619       -0.0000000000000000       -0.0000000000000000     
   6530.7933565997619        0.0000000000000000       -0.0000000000000000     
   6530.7933565997619        0.0000000000000000       -0.0000000000000000     
   6530.7933565997619        0.0000000000000000       -0.0000000000000000     
   6530.7933565997619        0.0000000000000000       -0.0000000000000000     
   6530.7933565997619        0.0000000000000000       -0.0000000000000000     
   6530.7933565997619        0.0000000000000000       -0.0000000000000000     
   6530.7933565997619        0.0000000000000000       -0.0000000000000000     
   6530.7933565997619        0.0000000000000000       -0.0000000000000000     
   6530.7933565997619        0.0000000000000000       -0.0000000000000000     
   6530.7933565997619        0.0000000000000000       -0.0000000000000000     
   6530.7933565997619        0.0000000000000000       -0.0000000000000000     
   6530.7933565997619        0.0000000000000000       -0.0000000000000000     
   6530.7933565997619        0.0000000000000000       -0.0000000000000000     
   6530.7933565997619        0.0000000000000000       -0.0000000000000000     
   6530.7933565997619        0.0000000000000000       -0.0000000000000000     
   6530.7933565997619        0.0000000000000000       -0.0000000000000000     
   6530.7933565997619        0.0000000000000000       -0.0000000000000000     
   6530.7933565997619        0.0000000000000000       -0.0000000000000000     
   6530.7933565997619        0.0000000000000000       -0.0000000000000000     
   6530.7933565997619        0.0000000000000000       -0.0000000000000000     
   6530.7933565997619        0.0000000000000000       -0.0000000000000000     
   6530.7933565997619        0.0000000000000000       -0.0000000000000000     
   6530.7933565997619        0.0000000000000000       -0.0000000000000000     
   6530.7933565997619        0.0000000000000000       -0.0000000000000000     
   6530.7933565997619        0.0000000000000000       -0.0000000000000000     
   6530.7933565997619        0.0000000000000000       -0.0000000000000000     
   6530.7933565997619        0.0000000000000000       -0.0000000000000000     
   6530.7933565997619        0.0000000000000000       -0.0000000000000000     
   6530.7933565997619        0.0000000000000000       -0.0000000000000000     
   6530.7933565997619        0.0000000000000000       -0.0000000000000000     
   6530.7933565997619        0.0000000000000000       -0.0000000000000000     
   6530.7933565997619        0.0000000000000000       -0.0000000000000000     
   6530.7933565997619        0.0000000000000000       -0.0000000000000000     
   6530.7933565997619        0.0000000000000000       -0.0000000000000000     
   6530.7933565997619        0.0000000000000000       -0.0000000000000000     
   6530.7933565997619        0.0000000000000000       -0.0000000000000000     
   6530.7933565997619        0.0000000000000000       -0.0000000000000000     
   6530.7933565997619        0.0000000000000000       -0.0000000000000000     
   6530.7933565997619        0.0000000000000000       -0.0000000000000000     
   6530.7933565997619        0.0000000000000000       -0.0000000000000000     
   6530.7933565997619        0.0000000000000000       -0.0000000000000000     
   6530.7933565997619        0.0000000000000000       -0.0000000000000000     
   6530.7933565997619        0.0000000000000000       -0.0000000000000000     
   6530.7933565997619        0.0000000000000000       -0.0000000000000000     
   6530.7933565997619        0.0000000000000000       -0.0000000000000000     
   6530.7933565997619        0.0000000000000000       -0.0000000000000000     
   6530.7933565997619        0.0000000000000000       -0.0000000000000000     
   6530.7933565997619        0.0000000000000000       -0.0000000000000000     
   6530.7933565997619        0.0000000000000000       -0.0000000000000000     
   6530.7933565997619        0.0000000000000000       -0.0000000000000000     
   6530.7933565997619        0.0000000000000000        0.0000000000000000     
   6139.4476125076953        192.93991402989656        0.0000000000000000     
   6091.4248075626301        191.33627707289634        6.0129847470375859     
   6044.5958347191927        189.58423598033664        11.927629123241081     
   5998.9711487437489        187.68858151505188        17.741794547734916     
   5954.5593127495413        185.65399261942468        23.453553493651839     
   5911.3671403386006        183.48503242285005        29.061174168224447     
   5869.3998322884217        181.18614522347482        34.563105702034989     
   5828.6611076142190        178.76165436302105        39.957963876644627     
   5789.1533288988294        176.21576091692759        45.244517412462947     
   5750.8776218366138        173.55254312574681        50.421674832157088     
   5713.8339889846357        170.77595649760005        55.488471909088133     
   5678.0214177554690        167.88983451549049        60.444059705161493     
   5643.4379827207295        164.89788988730521        65.287693198031391     
   5610.0809423239998        161.80371628037784        70.018720493763581     
   5577.9468301265142        158.61079048648247        74.636572617784253     
   5547.0315407289654        155.32247496704181        79.140753874175203     
   5517.3304105291172        151.94202073215047        83.530832761076596     
   5488.8382934873607        148.47257051069474        87.806433428073646     
   5461.5496320817774        144.91716217238724        91.967227659939340     
   5435.4585236408539        141.27873236591677        96.012927369935838     
   5410.5587822460102        137.56012034062113        99.943277585005234     
   5386.8439963981164        133.76407192213313        103.75804990457480     
   5364.3075826421637        129.89324361531206        107.45703641432604     
   5342.9428353426529        125.95020681046005        111.04004403610099     
   5322.7429727994777        121.93745207134164        114.50688929512583     
   5303.7011798897311        117.85739348586476        117.85739348587697     
   5285.8106474160368        113.71237306246701        121.09137821820282     
   5269.0646083359379        109.50466515726683        124.20866132569938     
   5253.4563710403663        105.23648091891015        127.20905311882038     
   5238.9793498422014        100.90997273976329        130.09235296576182     
   5225.6270928283720        96.527238703687871        132.85834618477867     
   5213.3933072211194        92.090327022082988        135.50680123226209     
   5202.2718823860796        87.601240451211922        138.03746717161661     
   5192.2569106165456        83.061940685040724        140.45007140871772     
   5183.3427058150228        78.474352718922503        142.74431768049641     
   5175.5238201847578        73.840369180461295        144.91988428397798     
   5168.7950590356377        69.161854624799844        146.97642253390083     
   5163.1514938003720        64.440649792393131        148.91355543783772     
   5158.5884733486992        59.678575828068837        150.73087657855547     
   5155.1016336789835        54.877438460834924        152.42794919415093     
   5152.6869060584841        50.039032144486448        154.00430544731265     
   5151.3405236754452        45.165144159585466        155.45944587586229     
   5151.0590268581936        40.257558677850149        156.79283901753297     
   5151.8392669085142        35.318060790392337        158.00392120274145     
   5153.6784085887648        30.348440501590812        159.09209650990829     
   5156.5739312944870        25.350496690684867        160.05673687867278     
   5160.5236289366048        20.326041043418961        160.89718237714260     
   5165.5256085497695        15.276901956270397        161.61274162010548     
   5171.5782876358653        10.204928415944448        162.20269233592145     
   5178.6803902443044        5.1119938569313117        162.66628208060246     
   5186.8309417832843       -1.6856365449785532E-011   163.00272909837781     
   5196.0292625489110       -5.1291193256101115        163.21122332883868     
   5206.2749599516101       -10.273394373092355        163.29092756154981     
   5217.5679194121922       -15.430815679877076        163.24097873982555     
   5229.9082938923766       -20.599330277081428        163.06048941616956     
   5243.2964920175391       -25.776837904460372        162.74854936269980     
   5257.7331647420688       -30.961187228460012        162.30422734070189     
   5273.2191905004929       -36.150172061383032        161.72657303428664     
   5289.7556587803501       -41.341527579989396        161.01461915396922     
   5307.3438520454920       -46.532926542248006        160.16738371683502     
   5325.9852259314557       -51.721975501414050        159.18387251081649     
   5345.6813876272745       -56.906211017135291        158.06308175146421     
   5366.4340723512159       -62.083095863899011        156.80400094046857     
   5388.2451178208166       -67.250015237816399        155.40561593605258     
   5411.1164366109660       -72.404272963521407        153.86691224623155     
   5435.0499862869492       -77.543087703830849        152.18687855679511     
   5460.0477371931929       -82.663589175788800        150.36451050672744     
   5486.1116377720973       -87.762814377801490        148.39881472461647     
   5513.2435772818371       -92.837703833772963        146.28881314042570     
   5541.4453457764857       -97.885097861477618        144.03354758778494     
   5570.7185912071982       -102.90173287386985        141.63208471270556     
   5601.0647734990043       -107.88423772363363        139.08352120531981     
   5632.4851154544058       -112.82913010303110        136.38698937187326     
   5664.9805503325542       -117.73281301302094        133.54166306475099     
   5698.5516659513560       -122.59157131769722        130.54676398877046     
   5733.1986451597868       -127.40156840235335        127.40156840231376     
   5768.9212025289326       -132.15884295590536        124.10541423207378     
   5805.7185171132078       -136.85930590102677        120.65770862022754     
   5843.5891611380903       -141.49873749815333        117.05793592270734     
   5882.5310244776119       -146.07278465251011        113.30566617687620     
   5922.5412347942847       -150.57695845650116        109.40056405630648     
   5963.6160732261615       -155.00663200317462        105.34239832946696     
   6005.7508855210363       -159.35703851003521        101.13105183791640     
   6048.9399885361026       -163.62326979620016        96.766532008025735     
   6093.1765720439098       -167.80027515978847        92.248981908282673     
   6138.4525958116292       -171.88286070645421        87.578691861806334     
   6184.7586819518310       -175.86568918412607        82.756111620787323     
   6232.0840025785128       -179.74328038323486        77.781863106101071     
   6280.4161628436032       -183.51001216599531        72.656753711289426     
   6329.7410794758162       -187.16012219257584        67.381790165397078     
   6380.0428549969138       -190.68771041621875        61.958192943746909     
   6431.3036478498425       -194.08674242346984        56.387411209588137     
   6483.5035387395692       -197.35105369958541        50.671138262601275     
   6536.6203935608801       -200.47435490281003        44.811327462459438     
   6590.6297233681707       -203.45023823446056        38.810208586980252     
   6645.5045419304925       -206.27218499450362        32.670304574832095     
   6701.2152215109636       -208.93357441444880        26.394448592258840     
   6757.7293476127206       -211.42769386075469        19.985801351851535     
   6815.0115735442787       -213.74775050242587        13.447868599032764     
   6873.0234757741227       -215.88688453587653        6.7845186686504331     
   6931.7234111680636       -217.83818405830743       -4.5053970074185926E-011
   6991.0663773315964       -219.59470167757894       -6.9010415166758357     
   7051.0038774126415       -221.14947294168428       -13.913545503492912     
   7111.4837908561258       -222.49553666424191       -21.032020527989022     
   7172.4502517390092       -223.62595721372389       -28.250528179274564     
   7233.8435364508014       -224.53384882324002       -35.562667979832973     
   7295.5999626178073       -225.21240196441252       -42.961563340911702     
   7357.6518012964580       -225.65491181303540       -50.439848786086642     
   7419.9272045792486       -225.85480881567509       -57.989658683115337     
   7482.3501508620830       -225.80569134500794       -65.602617738697717     
   7544.8404101109527       -225.50136040744900       -73.269833523752212     
   7607.3135315338277       -224.93585633945111       -80.981891307825364     
   7669.6808561069865       -224.10349739880971       -88.728851489776119     
   7731.8495564180557       -222.99892012446986       -96.500249917367171     
   7793.7227062666298       -221.61712130290056       -104.28510139029159     
   7855.1993824026740       -219.95350134134884       -112.07190663889013     
   7916.1748006777780       -218.00390880857611       -119.84866306379125     
   7976.5404887309733       -215.76468586250272       -127.60287950937936     
   8036.1844971248620       -213.23271424213200       -135.32159532584686     
   8094.9916505859510       -210.40546145888848       -142.99140395014393     
   8152.8438406832265       -207.28102678092560       -150.59848120503929     
   8209.6203608990600       -203.85818656393380       -158.12861847745475     
   8265.1982846071114       -200.13643844455947       -165.56726089211645     
   8319.4528859738675       -196.11604387882176       -172.89955054437300     
   8372.2581032468224       -191.79806847904737       -180.11037479698186     
   8423.4870432885637       -187.18441958005997       -187.18441958015683     
   8473.0125255676976       -182.27788044982213       -194.10622756281492     
   8520.7076631354485       -177.08214055265904       -200.86026098664965     
   8566.4464774094286       -171.60182127562013       -207.43096887443843     
   8610.1045428684974       -165.84249654148942       -213.80285824124803     
   8651.5596570477792       -159.81070775618724       -219.96056885344288     
   8690.6925305281075       -153.51397257443071       -225.88895099741887     
   8727.3874909558363       -146.96078701584739       -231.57314563967000     
   8761.5331945260095       -140.16062052427682       -236.99866628422652     
   8793.0233378319026       -133.12390363545902       -242.15148176475429     
   8821.7573625458554       -125.86200800198803       -247.01809914884575     
   8847.6411450659489       -118.38721861828819       -251.58564588325646     
   8870.5876630571292       -110.71269819099662       -255.84195027302613     
   8890.5176307458751       -102.85244370977159       -259.77561936620759     
   8907.3600949051161       -94.821235388045196       -263.37611331075726     
   8921.0529836974438       -86.634578260275248       -266.63381526203278     
   8931.5436009321693       -78.308636839177126       -269.54009594893222     
   8938.7890588340142       -69.860163350551389       -272.08737205412433     
   8942.7566431118557       -61.306420171828222       -274.26915762872841     
   8943.4241049447774       -52.665097200630100       -276.08010784331896     
   8940.7798754535888       -43.954224968831944       -277.51605447386919     
   8934.8231992816709       -35.192084393462274       -278.57403263137843     
   8925.5641850449283       -26.397114116198026       -279.25229836511096     
   8913.0237716033735       -17.587816426560170       -279.55033689899909     
   8897.2336103278194       -8.7826627889723152       -279.46886139585382     
   8878.2358647564924        8.6682416575728308E-011  -279.00980228147762     
   8856.0829302299207        8.7420420116464808       -278.17628729739204     
   8830.8370772296239        17.425639759150993       -276.97261258347646     
   8802.5700232025192        26.033362216940503       -275.40420521737741     
   8771.3624386038591        34.548252416603766       -273.47757775324902     
   8737.3033937186356        42.953903836097837       -271.20027540580639     
   8700.4897535074088        51.234530889539393       -268.58081661470811     
   8661.0255282575763        59.375032928436802       -265.62862779738913     
   8619.0211881967880        67.361051275248258       -262.35397315448091     
   8574.5929504406668        75.179018924699761       -258.76788043034162     
   8527.8620467032597        82.816202664581340       -254.88206355186418     
   8478.9539801035571        90.260737483045887       -250.70884307206614     
   8427.9977791637102        97.501653241325371       -246.26106533181206     
   8375.1252567287156        104.52889369696759       -241.55202122463683     
   8320.4702810587351        111.33332806126450       -236.59536540757696     
   8264.1680657715897        117.90675536387826       -231.40503674697771     
   8206.3544846633340        124.24190197649811       -225.99518072442243     
   8147.1654167283978        130.33241271484528       -220.38007445628966     
   8086.7361259567951        136.17283599391305       -214.57405490310578     
   8025.2006797228587        141.75860355486998       -208.59145076387199     
   7962.6914088147469        147.08600531364922       -202.44651846788415     
   7899.3384114028140        152.15215990138572       -196.15338259404240     
   7835.2691025208724        156.95498147614492       -189.72598096690851     
   7770.6078099496081        161.49314338472473       -183.17801460121646     
   7705.4754167551364        165.76603924365841       -176.52290259340384     
   7639.9890501553045        169.77374199104960       -169.77374199092665     
   7574.2618158669775        173.51696143664719       -162.94327260841601     