 VARIABLES = "x_1", "x_2", "x_3"
 ZONE F = POINT , I =         201  , J =         101
   915.05669424966959        0.0000000000000000        0.0000000000000000     
   922.49857378659885        0.0000000000000000        0.0000000000000000     
   930.85786628734024        0.0000000000000000        0.0000000000000000     
   940.16926479999859        0.0000000000000000        0.0000000000000000     
   950.47194320585800        0.0000000000000000        0.0000000000000000     
   961.80988321310167        0.0000000000000000        0.0000000000000000     
   974.23224207050748        0.0000000000000000        0.0000000000000000     
   987.79376327334523        0.0000000000000000        0.0000000000000000     
   1002.5552321882881        0.0000000000000000        0.0000000000000000     
   1018.5839778573335        0.0000000000000000        0.0000000000000000     
   1035.9544211087805        0.0000000000000000        0.0000000000000000     
   1054.7486673041305        0.0000000000000000        0.0000000000000000     
   1075.0571393003413        0.0000000000000000        0.0000000000000000     
   1096.9792421118343        0.0000000000000000        0.0000000000000000     
   1120.6240447659329        0.0000000000000000        0.0000000000000000     
   1146.1109561960327        0.0000000000000000        0.0000000000000000     
   1173.5703596558649        0.0000000000000000        0.0000000000000000     
   1203.1441526208469        0.0000000000000000        0.0000000000000000     
   1234.9861145024288        0.0000000000000000        0.0000000000000000     
   1269.2619900921086        0.0000000000000000        0.0000000000000000     
   1306.1491289678258        0.0000000000000000        0.0000000000000000     
   1345.8354555997225        0.0000000000000000        0.0000000000000000     
   1388.5174559159132        0.0000000000000000        0.0000000000000000     
   1434.3967469425531        0.0000000000000000        0.0000000000000000     
   1483.6746397006418        0.0000000000000000        0.0000000000000000     
   1536.5439058609863        0.0000000000000000        0.0000000000000000     
   1593.1767143497259        0.0000000000000000        0.0000000000000000     
   1653.7074250639391        0.0000000000000000        0.0000000000000000     
   1718.2086463371875        0.0000000000000000        0.0000000000000000     
   1786.6587573525267        0.0000000000000000        0.0000000000000000     
   1858.8991162285595        0.0000000000000000        0.0000000000000000     
   1934.5796806251499        0.0000000000000000        0.0000000000000000     
   2013.0931681196548        0.0000000000000000        0.0000000000000000     
   2093.5007259885260        0.0000000000000000        0.0000000000000000     
   2174.4569287913710        0.0000000000000000        0.0000000000000000     
   2254.1489966533140        0.0000000000000000        0.0000000000000000     
   2330.2735907759293        0.0000000000000000        0.0000000000000000     
   2400.0815307495745        0.0000000000000000        0.0000000000000000     
   2460.5207936889065        0.0000000000000000        0.0000000000000000     
   2508.4942287180943        0.0000000000000000        0.0000000000000000     
   2541.2165118802059        0.0000000000000000        0.0000000000000000     
   2556.6107324480809        0.0000000000000000        0.0000000000000000     
   2553.6479712334235        0.0000000000000000        0.0000000000000000     
   2532.5288821175427        0.0000000000000000        0.0000000000000000     
   2494.6475988783486        0.0000000000000000        0.0000000000000000     
   2442.3501187467587        0.0000000000000000        0.0000000000000000     
   2378.5647519697536        0.0000000000000000        0.0000000000000000     
   2306.4090667217811        0.0000000000000000        0.0000000000000000     
   2228.8604750170362        0.0000000000000000        0.0000000000000000     
   2148.5355073504365        0.0000000000000000        0.0000000000000000     
   2067.5811407651186       -0.0000000000000000        0.0000000000000000     
   1987.6553856736034       -0.0000000000000000        0.0000000000000000     
   1909.9655895099390       -0.0000000000000000        0.0000000000000000     
   1835.3359095333733       -0.0000000000000000        0.0000000000000000     
   1764.2833404160829       -0.0000000000000000        0.0000000000000000     
   1697.0898952639727       -0.0000000000000000        0.0000000000000000     
   1633.8649216035974       -0.0000000000000000        0.0000000000000000     
   1574.5956879870816       -0.0000000000000000        0.0000000000000000     
   1519.1866916624422       -0.0000000000000000        0.0000000000000000     
   1467.4891974657994       -0.0000000000000000        0.0000000000000000     
   1419.3228312424333       -0.0000000000000000        0.0000000000000000     
   1374.4909761638341       -0.0000000000000000        0.0000000000000000     
   1332.7914786937747       -0.0000000000000000        0.0000000000000000     
   1294.0238851571239       -0.0000000000000000        0.0000000000000000     
   1257.9941597835277       -0.0000000000000000        0.0000000000000000     
   1224.5176047456837       -0.0000000000000000        0.0000000000000000     
   1193.4205173678529       -0.0000000000000000        0.0000000000000000     
   1164.5409759575930       -0.0000000000000000        0.0000000000000000     
   1137.7290370172386       -0.0000000000000000        0.0000000000000000     
   1112.8465458310475       -0.0000000000000000        0.0000000000000000     
   1089.7667032030222       -0.0000000000000000        0.0000000000000000     
   1068.3734881352918       -0.0000000000000000        0.0000000000000000     
   1048.5610052975248       -0.0000000000000000        0.0000000000000000     
   1030.2328040341829       -0.0000000000000000        0.0000000000000000     
   1013.3011999789409       -0.0000000000000000        0.0000000000000000     
   997.68661931117913       -0.0000000000000000        0.0000000000000000     
   983.31697799169353       -0.0000000000000000        0.0000000000000000     
   970.12710300352364       -0.0000000000000000        0.0000000000000000     
   958.05819901178904       -0.0000000000000000        0.0000000000000000     
   947.05736144866489       -0.0000000000000000        0.0000000000000000     
   937.07713547084541       -0.0000000000000000        0.0000000000000000     
   928.07511927287487       -0.0000000000000000        0.0000000000000000     
   920.01360968935921       -0.0000000000000000        0.0000000000000000     
   912.85928775350123       -0.0000000000000000        0.0000000000000000     
   906.58294180756639       -0.0000000000000000        0.0000000000000000     
   901.15922581867176       -0.0000000000000000        0.0000000000000000     
   896.56645069596709       -0.0000000000000000        0.0000000000000000     
   892.78640660192116       -0.0000000000000000        0.0000000000000000     
   889.80421447995195       -0.0000000000000000        0.0000000000000000     
   887.60820526904024       -0.0000000000000000        0.0000000000000000     
   886.18982553413161       -0.0000000000000000        0.0000000000000000     
   885.54356850351382       -0.0000000000000000        0.0000000000000000     
   885.66692976782440       -0.0000000000000000        0.0000000000000000     
   886.56038715843908       -0.0000000000000000        0.0000000000000000     
   888.22740458532917       -0.0000000000000000        0.0000000000000000     
   890.67445987638268       -0.0000000000000000        0.0000000000000000     
   893.91109692214582       -0.0000000000000000        0.0000000000000000     
   897.95000269253512       -0.0000000000000000        0.0000000000000000     
   902.80710995535662       -0.0000000000000000        0.0000000000000000     
   908.50172678982244       -0.0000000000000000        0.0000000000000000     
   915.05669424971563       -0.0000000000000000       -0.0000000000000000     
   922.49857378665092       -0.0000000000000000       -0.0000000000000000     
   930.85786628739834       -0.0000000000000000       -0.0000000000000000     
   940.16926480006293       -0.0000000000000000       -0.0000000000000000     
   950.47194320592905       -0.0000000000000000       -0.0000000000000000     
   961.80988321317977       -0.0000000000000000       -0.0000000000000000     
   974.23224207059309       -0.0000000000000000       -0.0000000000000000     
   987.79376327343880       -0.0000000000000000       -0.0000000000000000     
   1002.5552321883893       -0.0000000000000000       -0.0000000000000000     
   1018.5839778574434       -0.0000000000000000       -0.0000000000000000     
   1035.9544211088996       -0.0000000000000000       -0.0000000000000000     
   1054.7486673042595       -0.0000000000000000       -0.0000000000000000     
   1075.0571393004805       -0.0000000000000000       -0.0000000000000000     
   1096.9792421119844       -0.0000000000000000       -0.0000000000000000     
   1120.6240447660946       -0.0000000000000000       -0.0000000000000000     
   1146.1109561962069       -0.0000000000000000       -0.0000000000000000     
   1173.5703596560525       -0.0000000000000000       -0.0000000000000000     
   1203.1441526210488       -0.0000000000000000       -0.0000000000000000     
   1234.9861145026464       -0.0000000000000000       -0.0000000000000000     
   1269.2619900923430       -0.0000000000000000       -0.0000000000000000     
   1306.1491289680780       -0.0000000000000000       -0.0000000000000000     
   1345.8354555999942       -0.0000000000000000       -0.0000000000000000     
   1388.5174559162049       -0.0000000000000000       -0.0000000000000000     
   1434.3967469428667       -0.0000000000000000       -0.0000000000000000     
   1483.6746397009783       -0.0000000000000000       -0.0000000000000000     
   1536.5439058613467       -0.0000000000000000       -0.0000000000000000     
   1593.1767143501122       -0.0000000000000000       -0.0000000000000000     
   1653.7074250643504       -0.0000000000000000       -0.0000000000000000     
   1718.2086463376256       -0.0000000000000000       -0.0000000000000000     
   1786.6587573529912       -0.0000000000000000       -0.0000000000000000     
   1858.8991162290472       -0.0000000000000000       -0.0000000000000000     
   1934.5796806256590       -0.0000000000000000       -0.0000000000000000     
   2013.0931681201796       -0.0000000000000000       -0.0000000000000000     
   2093.5007259890604       -0.0000000000000000       -0.0000000000000000     
   2174.4569287919016       -0.0000000000000000       -0.0000000000000000     
   2254.1489966538306       -0.0000000000000000       -0.0000000000000000     
   2330.2735907764136       -0.0000000000000000       -0.0000000000000000     
   2400.0815307500070       -0.0000000000000000       -0.0000000000000000     
   2460.5207936892666       -0.0000000000000000       -0.0000000000000000     
   2508.4942287183635       -0.0000000000000000       -0.0000000000000000     
   2541.2165118803650       -0.0000000000000000       -0.0000000000000000     
   2556.6107324481218       -0.0000000000000000       -0.0000000000000000     
   2553.6479712333430       -0.0000000000000000       -0.0000000000000000     
   2532.5288821173453       -0.0000000000000000       -0.0000000000000000     
   2494.6475988780489       -0.0000000000000000       -0.0000000000000000     
   2442.3501187463726       -0.0000000000000000       -0.0000000000000000     
   2378.5647519693025       -0.0000000000000000       -0.0000000000000000     
   2306.4090667212849       -0.0000000000000000       -0.0000000000000000     
   2228.8604750165127       -0.0000000000000000       -0.0000000000000000     
   2148.5355073499031       -0.0000000000000000       -0.0000000000000000     
   2067.5811407645865        0.0000000000000000       -0.0000000000000000     
   1987.6553856730841        0.0000000000000000       -0.0000000000000000     
   1909.9655895094356        0.0000000000000000       -0.0000000000000000     
   1835.3359095328935        0.0000000000000000       -0.0000000000000000     
   1764.2833404156270        0.0000000000000000       -0.0000000000000000     
   1697.0898952635441        0.0000000000000000       -0.0000000000000000     
   1633.8649216031936        0.0000000000000000       -0.0000000000000000     
   1574.5956879867047        0.0000000000000000       -0.0000000000000000     
   1519.1866916620893        0.0000000000000000       -0.0000000000000000     
   1467.4891974654709        0.0000000000000000       -0.0000000000000000     
   1419.3228312421277        0.0000000000000000       -0.0000000000000000     
   1374.4909761635490        0.0000000000000000       -0.0000000000000000     
   1332.7914786935103        0.0000000000000000       -0.0000000000000000     
   1294.0238851568774        0.0000000000000000       -0.0000000000000000     
   1257.9941597832988        0.0000000000000000       -0.0000000000000000     
   1224.5176047454711        0.0000000000000000       -0.0000000000000000     
   1193.4205173676555        0.0000000000000000       -0.0000000000000000     
   1164.5409759574093        0.0000000000000000       -0.0000000000000000     
   1137.7290370170688        0.0000000000000000       -0.0000000000000000     
   1112.8465458308895        0.0000000000000000       -0.0000000000000000     
   1089.7667032028760        0.0000000000000000       -0.0000000000000000     
   1068.3734881351559        0.0000000000000000       -0.0000000000000000     
   1048.5610052973991        0.0000000000000000       -0.0000000000000000     
   1030.2328040340665        0.0000000000000000       -0.0000000000000000     
   1013.3011999788341        0.0000000000000000       -0.0000000000000000     
   997.68661931108045        0.0000000000000000       -0.0000000000000000     
   983.31697799160258        0.0000000000000000       -0.0000000000000000     
   970.12710300344054        0.0000000000000000       -0.0000000000000000     
   958.05819901171299        0.0000000000000000       -0.0000000000000000     
   947.05736144859600        0.0000000000000000       -0.0000000000000000     
   937.07713547078299        0.0000000000000000       -0.0000000000000000     
   928.07511927281871        0.0000000000000000       -0.0000000000000000     
   920.01360968930896        0.0000000000000000       -0.0000000000000000     
   912.85928775345701        0.0000000000000000       -0.0000000000000000     
   906.58294180752785        0.0000000000000000       -0.0000000000000000     
   901.15922581863879        0.0000000000000000       -0.0000000000000000     
   896.56645069593924        0.0000000000000000       -0.0000000000000000     
   892.78640660189876        0.0000000000000000       -0.0000000000000000     
   889.80421447993501        0.0000000000000000       -0.0000000000000000     
   887.60820526902842        0.0000000000000000       -0.0000000000000000     
   886.18982553412513        0.0000000000000000       -0.0000000000000000     
   885.54356850351178        0.0000000000000000       -0.0000000000000000     
   885.66692976782792        0.0000000000000000       -0.0000000000000000     
   886.56038715844772        0.0000000000000000       -0.0000000000000000     
   888.22740458534281        0.0000000000000000       -0.0000000000000000     
   890.67445987640144        0.0000000000000000       -0.0000000000000000     
   893.91109692216969        0.0000000000000000       -0.0000000000000000     
   897.95000269256468        0.0000000000000000       -0.0000000000000000     
   902.80710995539152        0.0000000000000000       -0.0000000000000000     
   908.50172678986269        0.0000000000000000       -0.0000000000000000     
   915.05669424976168        0.0000000000000000        0.0000000000000000     
   1029.4940156537837        32.353152825975847        0.0000000000000000     
   1039.6332556332236        32.655669722307493        1.0262457645171099     
   1050.8893021614804        32.960358458680794        2.0736899849890591     
   1063.3138451632260        33.267682466816659        3.1447218719494145     
   1076.9651128779569        33.578114284547731        4.2419023069595836     
   1091.9084642418077        33.892136151894739        5.3679870158211909     
   1108.2170602543847        34.210240051084725        6.5259523100910730     
   1125.9726218674241        34.532927019817258        7.7190237208842074     
   1145.2662820088547        34.860705507532046        8.9507078659657093     
   1166.1995389582835        35.194088465691536        10.224827897483067     
   1188.8853171352405        35.533588758640647        11.545562865523346     
   1213.4491390294024        35.879712342674452        12.917491290066977     
   1240.0304078711658        36.232948475756899        14.345639142877900     
   1268.7837937967192        36.593755973079048        15.835532274525026     
   1299.8807053632777        36.962544193186510        17.393253040044200     
   1333.5108113584311        37.339646997622843        19.025500420428536     
   1369.8835520728469        37.725287336874096        20.739652218757161     
   1409.2295404430874        38.119529328719523        22.543826801130319     
   1451.8016957922118        38.522213650756861        24.446940166890926     
   1497.8758678603479        38.932870692031052        26.458751600172775     
   1547.7505845803310        39.350604113343572        28.589887391049277     
   1601.7453773390919        39.773935164744259        30.851826581110604     
   1660.1968806342968        40.200595238686020        33.256824652362710     
   1723.4515418375452        40.627250714039128        35.817739586100984     
   1791.8532801345302        41.049140374021185        38.547708621286162     
   1865.7237733566528        41.459602159750467        41.459602159754766     
   1945.3322187595652        41.849464111651791        44.565152854468010     
   2030.8504566658241        42.206276782001233        47.873623750233719     
   2122.2884401676824        42.513376178262689        51.389843914376101     
   2219.4046092878198        42.748795837205314        55.111415511497718     
   2321.5866573756707        42.884106628149389        59.024909038550547     
   2427.7019968119976        42.883369357327183        63.100961801118977     
   2535.9262142762486        42.702551324836477        67.288453865322410     
   2643.5744470721570        42.289976728659823        71.508445413471989     
   2746.9857004669389        41.588591958320706        75.649367936125628     
   2841.5386480108368        40.540874721001444        79.565946629819848     
   2921.8933020518684        39.096841232353135        83.085016847519228     
   2982.5281305124863        37.224561585127724        86.020886398797145     
   3018.5513710635282        34.920957122209856        88.200269610273821     
   3026.6196125865986        32.219176911851356        89.492206617880100     
   3005.6715599984454        29.188828770032750        89.833977774982500     
   2957.1886520583057        25.927591306273836        89.243354634875359     
   2884.8685707646737        22.546386123686283        87.812376259748532     
   2793.8477741356064        19.153020972495316        85.685690233475214     
   2689.7712538771871        15.839242651450970        83.032217764744942     
   2577.9966230912732        12.673820977461673        80.019356393217237     
   2463.0864863332981        9.7014955486247310        76.795244842994293     
   2348.5979326642810        6.9459147182671197        73.480102437774860     
   2237.0922028546024        4.4143904472216562        70.164726921806448     
   2130.2678282456400        2.1028360954896441        66.913329524916008     
   2029.1394649332306       -6.5943765573622407E-012   63.768276664059094     
   1934.2143213823483       -1.9093071948573661        60.755140054410155     
   1845.6431733255099       -3.6419552054843534        57.887220332820434     
   1763.3391606847067       -5.2150277657909800        55.169231121932938     
   1687.0660495787524       -6.6449407526148301        52.600122270399446     
   1616.5010656653667       -7.9469635191296026        50.175152955934870     
   1551.2780634802684       -9.1350034438599490        47.887365066784803     
   1491.0162038368999       -10.221553545908693        45.728601879385629     
   1435.3383095616280       -11.217735211051149        43.690194061714799     
   1383.8820618579148       -12.133391791215923        41.763408476919160     
   1336.3063426937604       -12.977205340839673        39.939731236028138     
   1292.2943587490397       -13.756819784552770        38.211036921631759     
   1251.5546839663573       -14.478960959181602        36.569680945642425     
   1213.8209983199324       -15.149548479711815        35.008540954483038     
   1178.8510467940064       -15.773797140625591        33.521025225255642     
   1146.4251663771281       -16.356307199851958        32.101060341688317     
   1116.3446079659163       -16.901143816544682        30.743066473610984     
   1088.4297979448932       -17.411906396986424        29.441925828467046     
   1062.5186289718931       -17.891788819349046        28.192947943091532     
   1038.4648327360949       -18.343631568170249        26.991834182418827     
   1016.1364632934929       -18.769966782071247        25.834642926679496     
   995.41450396016091       -19.173057145651299        24.717756331737331     
   976.19160086607621       -19.554929463975839        23.637849148846314     
   958.37092023450919       -19.917403660364315        22.591859827921059     
   941.86512295634486       -20.262117843460477        21.576963959193801     
   926.59544819604832       -20.590550002016894        20.590550002010499     
   912.49089700328227       -20.904036807243106        19.630197185904613     
   899.48750681356580       -21.203789933370839        18.693655433817149     
   887.52770803790088       -21.490910246937005        17.778827140697551     
   876.55975448996196       -21.766400163446626        16.883750636086795     
   866.53722006643352       -22.031174425666538        16.006585162145250     
   857.41855480839945       -22.286069519894649        15.145597205897959     
   849.16669418416575       -22.531851914268248        14.299148034196326     
   841.74871611948731       -22.769225275709140        13.465682290692277     
   835.13554094500978       -22.998836798731386        12.643717525119651     
   829.30167002584346       -23.221282759427229        11.831834535829250     
   824.22495938254065       -23.437113390950209        11.028668416497430     
   819.88642510740283       -23.646837162258134        10.232900207036511     
   816.27007782797386       -23.850924529359034        9.4432490568888205     
   813.36278387461675       -24.049811217471387        8.6584648160555204     
   811.15415117553096       -24.243901083066969        7.8773209754057527     
   809.63643823488576       -24.433568596451803        7.0986078830658137     
   808.80448485205966       -24.619160978129901        6.3211261680467992     
   808.65566351627672       -24.801000015485986        5.5436803057887092     
   809.18985066467042       -24.979383580132300        4.7650722630361466     
   810.40941722602008       -25.154586860424107        3.9840951614781366     
   812.31923808953354       -25.326863317993826        3.1995269009465854     
   814.92672033987265       -25.496445371526249        2.4101236837462578     
   818.24185028716033       -25.663544805231268        1.6146133819650332     
   822.27725949400917       -25.828352893391774       0.81168868948399375     
   827.04831015959553       -25.991040225781155       -5.3755476965226276E-012
   832.57320036083229       -26.151756211441892      -0.82185204820710134     
   838.87308976823681       -26.310628230044713       -1.6553244203333179     
   845.97224654201420       -26.467760390516208       -2.5019399858940909     
   853.89821616173276       -26.623231845485545       -3.3632963312726378     
   862.68201293564755       -26.777094596942071       -4.2410751412598042     
   872.35833485223498       -26.929370712816773       -5.1370522028018026     
   882.96580224755098       -27.080048855395553       -6.0531080773358363     
   894.54722042753076       -27.229079999809809       -6.9912394769193194     
   907.14986584950441       -27.376372193444841       -7.9535713620912682     
   920.82579465759625       -27.521784173895419       -8.9423697535766351     
   935.63217118152613       -27.665117622807241       -9.9600552122176040     
   951.63161231172910       -27.806107784069674       -11.009216887368979     
   968.89254127288564       -27.944412115618320       -12.092626957322945     
   987.48954098802290       -28.079596572575493       -13.213255177912076     
   1007.5036926296882       -28.211119033423685       -14.374283106254492     
   1029.0228786597720       -28.338309278122097       -15.579117360934017     
   1052.1420210941349       -28.460344805474893       -16.831400998227650     
   1076.9632141459988       -28.576221635210388       -18.135021700612885     
   1103.5956948405849       -28.684719078143594       -19.494114955284388     
   1132.1555744318450       -28.784357278247004       -20.913059703958016     
   1162.7652259797273       -28.873346141169311       -22.396463017160031     
   1195.5521874612023       -28.949524080832294       -23.949129121339492     
   1230.6473932637527       -29.010284869041548       -25.576006510312663     
   1268.1824877975539       -29.052490814180182       -27.282104824217750     
   1308.2859016427819       -29.072370609140648       -29.072370609155694     
   1351.0772828161350       -29.065400610762065       -30.951507946187920     
   1396.6597760014372       -29.026169249787610       -32.923726315705295     
   1445.1095391627539       -28.948226025465477       -34.992394177529903     
   1496.4617979699017       -28.823919537638172       -37.159573157541466     
   1550.6926982624916       -28.644233808155303       -39.425405539316415     
   1607.6962842744244       -28.398639397857124       -41.787328904055663     
   1667.2561981089289       -28.074986161099474       -44.239099362028682     
   1729.0122958951199       -27.659478187924037       -46.769623423008696     
   1792.4234722081505       -27.136787930669577       -49.361633998818704     
   1856.7297357413445       -26.490383180292493       -51.990304324534925     
   1920.9190488316244       -25.703151795310369       -54.621977956154169     
   1983.7074327081027       -24.758405039081623       -57.213298332957379     
   2043.5436632709061       -23.641307325926519       -59.711126266958580     
   2098.6511802228065       -22.340704253230861       -62.053693255117487     
   2147.1176655219633       -20.851197024343410       -64.173385812282518     
   2187.0352800945975       -19.175157078729523       -66.001323576237510     
   2216.6814559509226       -17.324240183946053       -67.473460673594843     
   2234.7141977039619       -15.319921254249373       -68.537387855379095     
   2240.3432855618994       -13.192698401908670       -69.158546953175474     
   2233.4369695227888       -10.979913651786507       -69.324446450102855     
   2214.5365944912451       -8.7225182846384772       -69.045841845732710     
   2184.7756995820455       -6.4614149049305540       -68.354629788308259     
   2145.7255998620335       -4.2340993269173453       -67.299081625396894     
   2099.2056123085076       -2.0721738716877951       -65.937641743682306     
   2047.0977872982996        1.9986784072075315E-011  -64.332639680396056     
   1991.1956561767201        1.9655547736896528       -62.544967033586033     
   1933.1010241313268        3.8145332962168119       -60.630270534830913     
   1874.1689251507480        5.5428037897541822       -58.636739260662310     
   1815.4920811767099        7.1507794963289388       -56.604248230043403     
   1757.9128635816624        8.6421652873826833       -54.564484173171330     
   1702.0512769617767        10.022860918826304       -52.541676944359999     
   1648.3399352572419        11.300074986945067       -50.553629442321281     
   1597.0599013832145        12.481653259425935       -48.612829849795155     
   1548.3737968636833        13.575597541448515       -46.727513229383611     
   1502.3544626386458        14.589740191683669       -44.902603199558364     
   1459.0086743435616        15.531538353602739       -43.140507382765122     
   1418.2961200365457        16.407955971607091       -41.441766197384162     
   1380.1441937667141        17.225407536540782       -39.805568199467373     
   1344.4592790822671        17.989743479262909       -38.230150900749429     
   1311.1351905958977        18.706262377074353       -36.713107059950858     
   1280.0593734668562        19.379739383618798       -35.251615072840849     
   1251.1173689593720        20.014463552085772       -33.842609646625192     
   1224.1959605170916        20.614279130590663       -32.482906224799720     
   1199.1853295320341        21.182627637894573       -31.169290040791505     
   1175.9804772651194        21.722588738813361       -29.898578405911323     
   1154.4821098113234        22.236918767999377       -28.667662934519399     
   1134.5971355331037        22.728086305700817       -27.473536865760650     
   1116.2388872824974        23.198304570808979       -26.313311415777772     
   1099.3271531437142        23.649560624564266       -25.184224136346828     
   1083.7880776390243        24.083641515470898       -24.083641515453454     
   1069.5539788771591        24.502157572433713       -23.009057487887834     