 VARIABLES = "x_1", "x_2", "x_3"
 ZONE F = POINT , I =         201  , J =         101
   2303.6486275709822        0.0000000000000000        0.0000000000000000     
   2303.6486275709822        0.0000000000000000        0.0000000000000000     
   2303.6486275709822        0.0000000000000000        0.0000000000000000     
   2303.6486275709822        0.0000000000000000        0.0000000000000000     
   2303.6486275709822        0.0000000000000000        0.0000000000000000     
   2303.6486275709822        0.0000000000000000        0.0000000000000000     
   2303.6486275709822        0.0000000000000000        0.0000000000000000     
   2303.6486275709822        0.0000000000000000        0.0000000000000000     
   2303.6486275709822        0.0000000000000000        0.0000000000000000     
   2303.6486275709822        0.0000000000000000        0.0000000000000000     
   2303.6486275709822        0.0000000000000000        0.0000000000000000     
   2303.6486275709822        0.0000000000000000        0.0000000000000000     
   2303.6486275709822        0.0000000000000000        0.0000000000000000     
   2303.6486275709822        0.0000000000000000        0.0000000000000000     
   2303.6486275709822        0.0000000000000000        0.0000000000000000     
   2303.6486275709822        0.0000000000000000        0.0000000000000000     
   2303.6486275709822        0.0000000000000000        0.0000000000000000     
   2303.6486275709822        0.0000000000000000        0.0000000000000000     
   2303.6486275709822        0.0000000000000000        0.0000000000000000     
   2303.6486275709822        0.0000000000000000        0.0000000000000000     
   2303.6486275709822        0.0000000000000000        0.0000000000000000     
   2303.6486275709822        0.0000000000000000        0.0000000000000000     
   2303.6486275709822        0.0000000000000000        0.0000000000000000     
   2303.6486275709822        0.0000000000000000        0.0000000000000000     
   2303.6486275709822        0.0000000000000000        0.0000000000000000     
   2303.6486275709822        0.0000000000000000        0.0000000000000000     
   2303.6486275709822        0.0000000000000000        0.0000000000000000     
   2303.6486275709822        0.0000000000000000        0.0000000000000000     
   2303.6486275709822        0.0000000000000000        0.0000000000000000     
   2303.6486275709822        0.0000000000000000        0.0000000000000000     
   2303.6486275709822        0.0000000000000000        0.0000000000000000     
   2303.6486275709822        0.0000000000000000        0.0000000000000000     
   2303.6486275709822        0.0000000000000000        0.0000000000000000     
   2303.6486275709822        0.0000000000000000        0.0000000000000000     
   2303.6486275709822        0.0000000000000000        0.0000000000000000     
   2303.6486275709822        0.0000000000000000        0.0000000000000000     
   2303.6486275709822        0.0000000000000000        0.0000000000000000     
   2303.6486275709822        0.0000000000000000        0.0000000000000000     
   2303.6486275709822        0.0000000000000000        0.0000000000000000     
   2303.6486275709822        0.0000000000000000        0.0000000000000000     
   2303.6486275709822        0.0000000000000000        0.0000000000000000     
   2303.6486275709822        0.0000000000000000        0.0000000000000000     
   2303.6486275709822        0.0000000000000000        0.0000000000000000     
   2303.6486275709822        0.0000000000000000        0.0000000000000000     
   2303.6486275709822        0.0000000000000000        0.0000000000000000     
   2303.6486275709822        0.0000000000000000        0.0000000000000000     
   2303.6486275709822        0.0000000000000000        0.0000000000000000     
   2303.6486275709822        0.0000000000000000        0.0000000000000000     
   2303.6486275709822        0.0000000000000000        0.0000000000000000     
   2303.6486275709822        0.0000000000000000        0.0000000000000000     
   2303.6486275709822       -0.0000000000000000        0.0000000000000000     
   2303.6486275709822       -0.0000000000000000        0.0000000000000000     
   2303.6486275709822       -0.0000000000000000        0.0000000000000000     
   2303.6486275709822       -0.0000000000000000        0.0000000000000000     
   2303.6486275709822       -0.0000000000000000        0.0000000000000000     
   2303.6486275709822       -0.0000000000000000        0.0000000000000000     
   2303.6486275709822       -0.0000000000000000        0.0000000000000000     
   2303.6486275709822       -0.0000000000000000        0.0000000000000000     
   2303.6486275709822       -0.0000000000000000        0.0000000000000000     
   2303.6486275709822       -0.0000000000000000        0.0000000000000000     
   2303.6486275709822       -0.0000000000000000        0.0000000000000000     
   2303.6486275709822       -0.0000000000000000        0.0000000000000000     
   2303.6486275709822       -0.0000000000000000        0.0000000000000000     
   2303.6486275709822       -0.0000000000000000        0.0000000000000000     
   2303.6486275709822       -0.0000000000000000        0.0000000000000000     
   2303.6486275709822       -0.0000000000000000        0.0000000000000000     
   2303.6486275709822       -0.0000000000000000        0.0000000000000000     
   2303.6486275709822       -0.0000000000000000        0.0000000000000000     
   2303.6486275709822       -0.0000000000000000        0.0000000000000000     
   2303.6486275709822       -0.0000000000000000        0.0000000000000000     
   2303.6486275709822       -0.0000000000000000        0.0000000000000000     
   2303.6486275709822       -0.0000000000000000        0.0000000000000000     
   2303.6486275709822       -0.0000000000000000        0.0000000000000000     
   2303.6486275709822       -0.0000000000000000        0.0000000000000000     
   2303.6486275709822       -0.0000000000000000        0.0000000000000000     
   2303.6486275709822       -0.0000000000000000        0.0000000000000000     
   2303.6486275709822       -0.0000000000000000        0.0000000000000000     
   2303.6486275709822       -0.0000000000000000        0.0000000000000000     
   2303.6486275709822       -0.0000000000000000        0.0000000000000000     
   2303.6486275709822       -0.0000000000000000        0.0000000000000000     
   2303.6486275709822       -0.0000000000000000        0.0000000000000000     
   2303.6486275709822       -0.0000000000000000        0.0000000000000000     
   2303.6486275709822       -0.0000000000000000        0.0000000000000000     
   2303.6486275709822       -0.0000000000000000        0.0000000000000000     
   2303.6486275709822       -0.0000000000000000        0.0000000000000000     
   2303.6486275709822       -0.0000000000000000        0.0000000000000000     
   2303.6486275709822       -0.0000000000000000        0.0000000000000000     
   2303.6486275709822       -0.0000000000000000        0.0000000000000000     
   2303.6486275709822       -0.0000000000000000        0.0000000000000000     
   2303.6486275709822       -0.0000000000000000        0.0000000000000000     
   2303.6486275709822       -0.0000000000000000        0.0000000000000000     
   2303.6486275709822       -0.0000000000000000        0.0000000000000000     
   2303.6486275709822       -0.0000000000000000        0.0000000000000000     
   2303.6486275709822       -0.0000000000000000        0.0000000000000000     
   2303.6486275709822       -0.0000000000000000        0.0000000000000000     
   2303.6486275709822       -0.0000000000000000        0.0000000000000000     
   2303.6486275709822       -0.0000000000000000        0.0000000000000000     
   2303.6486275709822       -0.0000000000000000        0.0000000000000000     
   2303.6486275709822       -0.0000000000000000        0.0000000000000000     
   2303.6486275709822       -0.0000000000000000        0.0000000000000000     
   2303.6486275709822       -0.0000000000000000       -0.0000000000000000     
   2303.6486275709822       -0.0000000000000000       -0.0000000000000000     
   2303.6486275709822       -0.0000000000000000       -0.0000000000000000     
   2303.6486275709822       -0.0000000000000000       -0.0000000000000000     
   2303.6486275709822       -0.0000000000000000       -0.0000000000000000     
   2303.6486275709822       -0.0000000000000000       -0.0000000000000000     
   2303.6486275709822       -0.0000000000000000       -0.0000000000000000     
   2303.6486275709822       -0.0000000000000000       -0.0000000000000000     
   2303.6486275709822       -0.0000000000000000       -0.0000000000000000     
   2303.6486275709822       -0.0000000000000000       -0.0000000000000000     
   2303.6486275709822       -0.0000000000000000       -0.0000000000000000     
   2303.6486275709822       -0.0000000000000000       -0.0000000000000000     
   2303.6486275709822       -0.0000000000000000       -0.0000000000000000     
   2303.6486275709822       -0.0000000000000000       -0.0000000000000000     
   2303.6486275709822       -0.0000000000000000       -0.0000000000000000     
   2303.6486275709822       -0.0000000000000000       -0.0000000000000000     
   2303.6486275709822       -0.0000000000000000       -0.0000000000000000     
   2303.6486275709822       -0.0000000000000000       -0.0000000000000000     
   2303.6486275709822       -0.0000000000000000       -0.0000000000000000     
   2303.6486275709822       -0.0000000000000000       -0.0000000000000000     
   2303.6486275709822       -0.0000000000000000       -0.0000000000000000     
   2303.6486275709822       -0.0000000000000000       -0.0000000000000000     
   2303.6486275709822       -0.0000000000000000       -0.0000000000000000     
   2303.6486275709822       -0.0000000000000000       -0.0000000000000000     
   2303.6486275709822       -0.0000000000000000       -0.0000000000000000     
   2303.6486275709822       -0.0000000000000000       -0.0000000000000000     
   2303.6486275709822       -0.0000000000000000       -0.0000000000000000     
   2303.6486275709822       -0.0000000000000000       -0.0000000000000000     
   2303.6486275709822       -0.0000000000000000       -0.0000000000000000     
   2303.6486275709822       -0.0000000000000000       -0.0000000000000000     
   2303.6486275709822       -0.0000000000000000       -0.0000000000000000     
   2303.6486275709822       -0.0000000000000000       -0.0000000000000000     
   2303.6486275709822       -0.0000000000000000       -0.0000000000000000     
   2303.6486275709822       -0.0000000000000000       -0.0000000000000000     
   2303.6486275709822       -0.0000000000000000       -0.0000000000000000     
   2303.6486275709822       -0.0000000000000000       -0.0000000000000000     
   2303.6486275709822       -0.0000000000000000       -0.0000000000000000     
   2303.6486275709822       -0.0000000000000000       -0.0000000000000000     
   2303.6486275709822       -0.0000000000000000       -0.0000000000000000     
   2303.6486275709822       -0.0000000000000000       -0.0000000000000000     
   2303.6486275709822       -0.0000000000000000       -0.0000000000000000     
   2303.6486275709822       -0.0000000000000000       -0.0000000000000000     
   2303.6486275709822       -0.0000000000000000       -0.0000000000000000     
   2303.6486275709822       -0.0000000000000000       -0.0000000000000000     
   2303.6486275709822       -0.0000000000000000       -0.0000000000000000     
   2303.6486275709822       -0.0000000000000000       -0.0000000000000000     
   2303.6486275709822       -0.0000000000000000       -0.0000000000000000     
   2303.6486275709822       -0.0000000000000000       -0.0000000000000000     
   2303.6486275709822       -0.0000000000000000       -0.0000000000000000     
   2303.6486275709822       -0.0000000000000000       -0.0000000000000000     
   2303.6486275709822        0.0000000000000000       -0.0000000000000000     
   2303.6486275709822        0.0000000000000000       -0.0000000000000000     
   2303.6486275709822        0.0000000000000000       -0.0000000000000000     
   2303.6486275709822        0.0000000000000000       -0.0000000000000000     
   2303.6486275709822        0.0000000000000000       -0.0000000000000000     
   2303.6486275709822        0.0000000000000000       -0.0000000000000000     
   2303.6486275709822        0.0000000000000000       -0.0000000000000000     
   2303.6486275709822        0.0000000000000000       -0.0000000000000000     
   2303.6486275709822        0.0000000000000000       -0.0000000000000000     
   2303.6486275709822        0.0000000000000000       -0.0000000000000000     
   2303.6486275709822        0.0000000000000000       -0.0000000000000000     
   2303.6486275709822        0.0000000000000000       -0.0000000000000000     
   2303.6486275709822        0.0000000000000000       -0.0000000000000000     
   2303.6486275709822        0.0000000000000000       -0.0000000000000000     
   2303.6486275709822        0.0000000000000000       -0.0000000000000000     
   2303.6486275709822        0.0000000000000000       -0.0000000000000000     
   2303.6486275709822        0.0000000000000000       -0.0000000000000000     
   2303.6486275709822        0.0000000000000000       -0.0000000000000000     
   2303.6486275709822        0.0000000000000000       -0.0000000000000000     
   2303.6486275709822        0.0000000000000000       -0.0000000000000000     
   2303.6486275709822        0.0000000000000000       -0.0000000000000000     
   2303.6486275709822        0.0000000000000000       -0.0000000000000000     
   2303.6486275709822        0.0000000000000000       -0.0000000000000000     
   2303.6486275709822        0.0000000000000000       -0.0000000000000000     
   2303.6486275709822        0.0000000000000000       -0.0000000000000000     
   2303.6486275709822        0.0000000000000000       -0.0000000000000000     
   2303.6486275709822        0.0000000000000000       -0.0000000000000000     
   2303.6486275709822        0.0000000000000000       -0.0000000000000000     
   2303.6486275709822        0.0000000000000000       -0.0000000000000000     
   2303.6486275709822        0.0000000000000000       -0.0000000000000000     
   2303.6486275709822        0.0000000000000000       -0.0000000000000000     
   2303.6486275709822        0.0000000000000000       -0.0000000000000000     
   2303.6486275709822        0.0000000000000000       -0.0000000000000000     
   2303.6486275709822        0.0000000000000000       -0.0000000000000000     
   2303.6486275709822        0.0000000000000000       -0.0000000000000000     
   2303.6486275709822        0.0000000000000000       -0.0000000000000000     
   2303.6486275709822        0.0000000000000000       -0.0000000000000000     
   2303.6486275709822        0.0000000000000000       -0.0000000000000000     
   2303.6486275709822        0.0000000000000000       -0.0000000000000000     
   2303.6486275709822        0.0000000000000000       -0.0000000000000000     
   2303.6486275709822        0.0000000000000000       -0.0000000000000000     
   2303.6486275709822        0.0000000000000000       -0.0000000000000000     
   2303.6486275709822        0.0000000000000000       -0.0000000000000000     
   2303.6486275709822        0.0000000000000000       -0.0000000000000000     
   2303.6486275709822        0.0000000000000000       -0.0000000000000000     
   2303.6486275709822        0.0000000000000000       -0.0000000000000000     
   2303.6486275709822        0.0000000000000000       -0.0000000000000000     
   2303.6486275709822        0.0000000000000000       -0.0000000000000000     
   2303.6486275709822        0.0000000000000000       -0.0000000000000000     
   2303.6486275709822        0.0000000000000000       -0.0000000000000000     
   2303.6486275709822        0.0000000000000000        0.0000000000000000     
   2372.3269084803865        74.553376567710288        0.0000000000000000     
   2367.1003076620591        74.352417477741184        2.3366188526219602     
   2361.8330094759285        74.077129200720918        4.6605379347692866     
   2356.5314927276872        73.728318106385416        6.9693780070932654     
   2351.2021884703195        73.306864676016403        9.2608106503547329     
   2345.8514693176912        72.813720191686855        11.532560320508482     
   2340.4856393326418        72.249903407286382        13.782406184246796     
   2335.1109245052448        71.616497215873025        16.008183740078660     
   2329.7334638327793        70.914645327076130        18.207786230949541     
   2324.3593010089276        70.145548967403045        20.379165855235748     
   2318.9943767259351        69.310463615395108        22.520334783677669     
   2313.6445215898329        68.410695782640801        24.629365990446903     
   2308.3154496454190        67.447599850701110        26.704393907075517     
   2303.0127525045787        66.422574973040739        28.743614908413619     
   2297.7418940685175        65.337062050096478        30.745287640126243     
   2292.5082058319117        64.192540784664601        32.707733197498193     
   2287.3168827544796        62.990526823850232        34.629335165487859     
   2282.1729796833711        61.732568992911219        36.508539530064731     
   2277.0814083078403        60.420246625442410        38.343854470885603     
   2272.0469346260456        59.055166993496520        40.133850045315846     
   2267.0741769023630        57.638962840423282        41.877157773691835     
   2262.1676040924922        56.173290018437015        43.572470135553239     
   2257.3315347126477        54.659825232194457        45.218539986357129     
   2252.5701361284277        53.100263888982198        46.814179903922863     
   2247.8874242384236        51.496318055478376        48.358261473556908     
   2243.2872635273361        49.849714520467558        49.849714520472723     
   2238.7733674631741        48.162192962348605        51.287526297758667     
   2234.3492992131864        46.435504219786999        52.670740637764133     
   2230.0184726533139        44.671408663421147        53.998457074371387     
   2225.7841536462765        42.871674666136634        55.269829943206844     
   2221.6494615638367        41.038077169073532        56.484067466421031     
   2217.6173710293397        39.172396340225340        57.640430828239246     
   2213.6907138572478        37.276416322224058        58.738233247053657     
   2209.8721811671326        35.351924065681466        59.776839049400479     
   2206.1643256503748        33.400708244269758        60.755662750741848     
   2202.5695639686542        31.424558247572158        61.674168147554667     
   2199.0901792642530        29.425263247615764        62.531867424822593     
   2195.7283237630936        27.404611334909372        63.328320282629313     
   2192.4860214524078        25.364388719748131        64.063133085167934     
   2189.3651708159314        23.306378994511274        64.735958035110912     
   2186.3675476104768        21.232362452666532        65.346492375928179     
   2183.4948076687592        19.144115460203100        65.894477624402171     
   2180.7484897143249        17.043409875241640        66.379698835262317     
   2178.1300181753991        14.932012511613008        66.801983899553804     
   2175.6407059854564        12.811684642255152        67.161202878063065     
   2173.2817573592229        10.684181538347543        67.457267370845628     
   2171.0542705337666        8.5512520401835097        67.690129923642473     
   2168.9592404651921        6.4146381558712573        67.859783471725677     
   2166.9975614723235        4.2760746840517143        67.966260821484880     
   2165.1700298195715        2.1372888569258253        68.009634169851111     
   2163.4773462319777       -7.0309530423754673E-012   67.990014661453927     
   2161.9201183361597       -2.1340807949845364        67.907551983219975     
   2160.4988630216003       -4.2632509871597017        67.762433995946665     
   2159.2140087174012       -6.3858168971723410        67.554886402222451     
   2158.0658975802248       -8.5000940142443042        67.285172449912594     
   2157.0547875897842       -10.604407302808704        66.953592670290206     
   2156.1808545487474       -12.697091511562029        66.560484649760042     
   2155.4441939844924       -14.776491487707897        66.106222834002168     
   2154.8448229505598       -16.840962499040646        65.591218363247606     
   2154.3826817261752       -18.888870566397983        65.015918937294941     
   2154.0576354125469       -20.918592808893283        64.380808708776271     
   2153.8694754250728       -22.928517804221169        63.686408203091013     
   2153.8179208809074       -24.917045966214147        62.933274263339293     
   2153.9026198816568       -26.882589941713000        62.122000018507215     
   2154.1231506912704       -28.823575028700660        61.253214873080573     
   2154.4790228094303       -30.738439617536770        60.327584516193340     
   2154.9696779409978       -32.625635657019075        59.345810948350888     
   2155.5944908622737       -34.483629146887615        58.308632523704986     
   2156.3527701850257       -36.310900658278591        57.216824005798991     
   2157.2437590193958       -38.105945883525933        56.071196634645098     
   2158.2666355369770       -39.867276216601006        54.872598202943337     
   2159.4205134354706       -41.593419365373229        53.621913139201482     
   2160.7044423064631       -43.282919996766857        52.320062595467029     
   2162.1174079079960       -44.934340415782451        50.968004537338217     
   2163.6583323436962       -46.546261279243829        49.566733833877336     
   2165.3260741503300       -48.117282345024002        48.117282345009052     
   2167.1194282957772       -49.646023257395434        46.620719003948551     
   2169.0371260894804       -51.131124369041771        45.078149892167275     
   2171.0778350075384       -52.571247600158102        43.490718304369338     
   2173.2401584347285       -53.965077334957826        41.859604800920508     
   2175.5226353258217       -55.311321355791712        40.186027245139833     
   2177.9237397886795       -56.608711814973169        38.471240822836371     
   2180.4418805917512       -57.856006244289667        36.716538041447194     
   2183.0754005987060       -59.051988602065109        34.923248706107977     
   2185.8225761330896       -60.195470357520932        33.092739869965506     
   2188.6816162760615       -61.285291612065372        31.226415756021190     
   2191.6506621004246       -62.320322257019519        29.325717647776735     
   2194.7277858443913       -63.299463167166273        27.392123745936967     
   2197.9109900287094       -64.221647429383466        25.427148988411552     
   2201.1982065210341       -65.085841605494622        23.432344830845995     
   2204.5872955517070       -65.891047028341958        21.409298984903437     
   2208.0760446853510       -66.636301129951832        19.359635111512741     
   2211.6621677530497       -67.320678800528071        17.285012466294699     
   2215.3433037502082       -67.943293776869467        15.187125494377655     
   2219.1170157055521       -68.503300058664038        13.067703371816094     
   2222.9807895271379       -68.999893350966801        10.928509490831663     
   2226.9320328316876       -69.432312531017232        8.7713408861053228     
   2230.9680737639928       -69.799841137396669        6.5980275993624042     
   2235.0861598136594       -70.101808879366999        4.4104319795100562     
   2239.2834566369452       -70.337593164066519        2.2104479156085333     
   2243.5570468920309       -70.506620639068856       -1.4582398352413393E-011
   2247.9039290966111       -70.608368747635822       -2.2189573811650063     
   2252.3210165172882       -70.642367293812057       -4.4444410323152539     
   2256.8051361008879       -70.608200014322890       -6.6744400108420647     
   2261.3530274584496       -70.505506154042479       -8.9069167694838409     
   2265.9613419132797       -70.333982041598276       -11.139808381470210     
   2270.6266416251406       -70.093382661471225       -13.371027850701577     
   2275.3453988033198       -69.783523218737741       -15.598465509272224     
   2280.1139950219658       -69.404280692378194       -17.819990504531656     
   2284.9287206517838       -68.955595372851548       -20.033452377769311     
   2289.7857744227904       -68.437472379401868       -22.236682736480393     
   2294.6812631335147       -67.849983152325819       -24.427497022028763     
   2299.6112015225690       -67.193266915185689       -26.603696374361288     
   2304.5715123191494       -66.467532101707079       -28.763069595248364     
   2309.5580264894934       -65.673057741849206       -30.903395211322881     
   2314.5664836968053       -64.810194801284425       -33.022443637965360     
   2319.5925329925703       -63.879367468271461       -35.117979444833693     
   2324.6317337574696       -62.881074381656305       -37.187763723559598     
   2329.6795569103424       -61.815889793487067       -39.229556557830392     
   2334.7313864037878       -60.684464659488725       -41.241119595741445     
   2339.7825210249744       -59.487527650410122       -43.220218723940356     
   2344.8281765201400       -58.225886077034481       -45.164626842687944     
   2349.8634880609939       -56.900426721437384       -47.072126740531964     
   2354.8835130708158       -55.512116566887507       -48.940514066825756     
   2359.8832344275229       -54.062003418618460       -50.767600399827799     
   2364.8575640601784       -52.551216407558080       -52.551216407585279     
   2369.8013469545199       -50.980966368990664       -54.289215098239161     
   2374.7093655819795       -49.352546088051277       -55.979475155789693     
   2379.5763447653098       -47.667330403912793       -57.619904356728249     
   2384.3969569924361       -45.926776164533671       -59.208443062281070     
   2389.1658281884011       -44.132422023889070       -60.743067780319116     
   2393.8775439533078       -42.285888073716286       -62.221794790274380     
   2398.5266562719944       -40.388875301973790       -63.642683823664306     
   2403.1076906987882       -38.443164870440896       -65.003841792074795     
   2407.6151540180804       -36.450617204184773       -66.303426553682684     
   2412.0435423786471       -34.413170885987036       -67.539650708628827     
   2416.3873498966432       -32.332841349268755       -68.710785412776360     
   2420.6410777190254       -30.211719363570790       -69.815164198625510     
   2424.7992435357573       -28.051969307251120       -70.851186791400224     
   2428.8563915257041       -25.855827222742377       -71.817322907595454     
   2432.8071027174487       -23.625598650482850       -72.712116022572530     
   2436.6460057425534       -21.363656238481621       -73.534187093134051     
   2440.3677879549955       -19.072437125415053       -74.282238220399762     
   2443.9672068866389       -16.754440096160810       -74.955056237758171     
   2447.4391020047833       -14.412222509770006       -75.551516208188190     
   2450.7784067340376       -12.048397001036601       -76.070584814848814     
   2453.9801607009613       -9.6656279580566782       -76.511323628521851     
   2457.0395221563922       -7.2666277794566634       -76.872892235285931     
   2459.9517805268320       -4.8541529163130157       -77.154551207694226     
   2462.7123690430471       -2.4309997051700765       -77.355664902743584     
   2465.3168773910311        2.4070054886184791E-011  -77.475704070059336     
   2467.7610643277185        2.4359833878044168       -77.514248253987759     
   2470.0408702015116        4.8740614302007206       -77.470987973690498     
   2472.1524293156135        7.3113237927357169       -77.345726665878217     
   2474.0920820706197        9.7448438998607507       -77.138382375504918     
   2475.8563868216538        12.171684140896463       -76.848989180571863     
   2477.4421313846769        14.588901200223273       -76.477698338158589     
   2478.8463441264839        16.993551494202226       -76.024779139908617     
   2480.0663045732754        19.382696696134584       -75.490619466440279     
   2481.0995534736458        21.753409329485820       -74.875726031525161     
   2481.9439022533479        24.102778408639448       -74.180724308369207     
   2482.5974418012979        26.427915105604978       -73.406358131934653     
   2483.0585505288741        28.725958420411157       -72.553488972938652     
   2483.3259016478660        30.994080832370308       -71.623094880951697     
   2483.3984696160805        33.229493909018331       -70.616269095870152     
   2483.2755357039432        35.429453849328453       -69.534218328943169     
   2482.9566926401608        37.591266937763109       -68.378260716475481     
   2482.4418482996853        39.712294885884454       -67.149823451280980     
   2481.7312284028421        41.789960038579608       -65.850440098916692     
   2480.8253782004058        43.821750422484953       -64.481747607652935     
   2479.7251631256463        45.805224614899309       -63.045483023021987     
   2478.4317684008470        47.738016412368424       -61.543479919608409     
   2476.9466975923992        49.617839279180991       -59.977664564483995     
   2475.2717701153456        51.442490557246536       -58.350051828327707     
   2473.4091176949728        53.209855420200164       -56.662740861792216     
   2471.3611797998069        54.917910556102093       -54.917910556062310     
   2469.1306980669378        56.564727564739229       -53.117814807788982     