 VARIABLES = "x_1", "x_2", "x_3"
 ZONE F = POINT , I =         201  , J =         101
   1121.1642025328474        0.0000000000000000        0.0000000000000000     
   1120.5517507061541        0.0000000000000000        0.0000000000000000     
   1119.8141856841446        0.0000000000000000        0.0000000000000000     
   1118.9551516849958        0.0000000000000000        0.0000000000000000     
   1117.9788681753159        0.0000000000000000        0.0000000000000000     
   1116.8900980920118        0.0000000000000000        0.0000000000000000     
   1115.6941125906594        0.0000000000000000        0.0000000000000000     
   1114.3966528016379        0.0000000000000000        0.0000000000000000     
   1113.0038891003474        0.0000000000000000        0.0000000000000000     
   1111.5223784119880        0.0000000000000000        0.0000000000000000     
   1109.9590200748596        0.0000000000000000        0.0000000000000000     
   1108.3210107794441        0.0000000000000000        0.0000000000000000     
   1106.6157990844204        0.0000000000000000        0.0000000000000000     
   1104.8510399862635        0.0000000000000000        0.0000000000000000     
   1103.0345499873001        0.0000000000000000        0.0000000000000000     
   1101.1742630693427        0.0000000000000000        0.0000000000000000     
   1099.2781879376184        0.0000000000000000        0.0000000000000000     
   1097.3543668539821        0.0000000000000000        0.0000000000000000     
   1095.4108363306577        0.0000000000000000        0.0000000000000000     
   1093.4555899072357        0.0000000000000000        0.0000000000000000     
   1091.4965431854655        0.0000000000000000        0.0000000000000000     
   1089.5415012495316        0.0000000000000000        0.0000000000000000     
   1087.5981285548496        0.0000000000000000        0.0000000000000000     
   1085.6739213266358        0.0000000000000000        0.0000000000000000     
   1083.7761824711699        0.0000000000000000        0.0000000000000000     
   1081.9119989681531        0.0000000000000000        0.0000000000000000     
   1080.0882216821442        0.0000000000000000        0.0000000000000000     
   1078.3114475048296        0.0000000000000000        0.0000000000000000     
   1076.5880037179084        0.0000000000000000        0.0000000000000000     
   1074.9239344485075        0.0000000000000000        0.0000000000000000     
   1073.3249890752124        0.0000000000000000        0.0000000000000000     
   1071.7966124326636        0.0000000000000000        0.0000000000000000     
   1070.3439366560933        0.0000000000000000        0.0000000000000000     
   1068.9717745037465        0.0000000000000000        0.0000000000000000     
   1067.6846139945983        0.0000000000000000        0.0000000000000000     
   1066.4866142008066        0.0000000000000000        0.0000000000000000     
   1065.3816020385871        0.0000000000000000        0.0000000000000000     
   1064.3730699074003        0.0000000000000000        0.0000000000000000     
   1063.4641740351631        0.0000000000000000        0.0000000000000000     
   1062.6577333964278        0.0000000000000000        0.0000000000000000     
   1061.9562290808226        0.0000000000000000        0.0000000000000000     
   1061.3618040003382        0.0000000000000000        0.0000000000000000     
   1060.8762628360748        0.0000000000000000        0.0000000000000000     
   1060.5010721376893        0.0000000000000000        0.0000000000000000     
   1060.2373605018465        0.0000000000000000        0.0000000000000000     
   1060.0859187693927        0.0000000000000000        0.0000000000000000     
   1060.0472001946339        0.0000000000000000        0.0000000000000000     
   1060.1213205539375        0.0000000000000000        0.0000000000000000     
   1060.3080581748256        0.0000000000000000        0.0000000000000000     
   1060.6068538807538        0.0000000000000000        0.0000000000000000     
   1061.0168108607784       -0.0000000000000000        0.0000000000000000     
   1061.5366944873419       -0.0000000000000000        0.0000000000000000     
   1062.1649321193090       -0.0000000000000000        0.0000000000000000     
   1062.8996129411737       -0.0000000000000000        0.0000000000000000     
   1063.7384879029776       -0.0000000000000000        0.0000000000000000     
   1064.6789698387570       -0.0000000000000000        0.0000000000000000     
   1065.7181338543107       -0.0000000000000000        0.0000000000000000     
   1066.8527180875103       -0.0000000000000000        0.0000000000000000     
   1068.0791249562019       -0.0000000000000000        0.0000000000000000     
   1069.3934230197651       -0.0000000000000000        0.0000000000000000     
   1070.7913495904161       -0.0000000000000000        0.0000000000000000     
   1072.2683142391541       -0.0000000000000000        0.0000000000000000     
   1073.8194033486047       -0.0000000000000000        0.0000000000000000     
   1075.4393858706203       -0.0000000000000000        0.0000000000000000     
   1077.1227204500983       -0.0000000000000000        0.0000000000000000     
   1078.8635640777245       -0.0000000000000000        0.0000000000000000     
   1080.6557824329443       -0.0000000000000000        0.0000000000000000     
   1082.4929620740875       -0.0000000000000000        0.0000000000000000     
   1084.3684246248981       -0.0000000000000000        0.0000000000000000     
   1086.2752430954711       -0.0000000000000000        0.0000000000000000     
   1088.2062604604973       -0.0000000000000000        0.0000000000000000     
   1090.1541105986089       -0.0000000000000000        0.0000000000000000     
   1092.1112416732778       -0.0000000000000000        0.0000000000000000     
   1094.0699420082060       -0.0000000000000000        0.0000000000000000     
   1096.0223684783878       -0.0000000000000000        0.0000000000000000     
   1097.9605774023066       -0.0000000000000000        0.0000000000000000     
   1099.8765578812324       -0.0000000000000000        0.0000000000000000     
   1101.7622674888648       -0.0000000000000000        0.0000000000000000     
   1103.6096701691256       -0.0000000000000000        0.0000000000000000     
   1105.4107761525331       -0.0000000000000000        0.0000000000000000     
   1107.1576836532042       -0.0000000000000000        0.0000000000000000     
   1108.8426220601038       -0.0000000000000000        0.0000000000000000     
   1110.4579962889345       -0.0000000000000000        0.0000000000000000     
   1111.9964319162175       -0.0000000000000000        0.0000000000000000     
   1113.4508206760386       -0.0000000000000000        0.0000000000000000     
   1114.8143658638978       -0.0000000000000000        0.0000000000000000     
   1116.0806271624963       -0.0000000000000000        0.0000000000000000     
   1117.2435643822912       -0.0000000000000000        0.0000000000000000     
   1118.2975795964016       -0.0000000000000000        0.0000000000000000     
   1119.2375571458804       -0.0000000000000000        0.0000000000000000     
   1120.0589009981375       -0.0000000000000000        0.0000000000000000     
   1120.7575689589003       -0.0000000000000000        0.0000000000000000     
   1121.3301032665329       -0.0000000000000000        0.0000000000000000     
   1121.7736571366938       -0.0000000000000000        0.0000000000000000     
   1122.0860168745094       -0.0000000000000000        0.0000000000000000     
   1122.2656192298505       -0.0000000000000000        0.0000000000000000     
   1122.3115637376163       -0.0000000000000000        0.0000000000000000     
   1122.2236198577011       -0.0000000000000000        0.0000000000000000     
   1122.0022288067112       -0.0000000000000000        0.0000000000000000     
   1121.6485000536770       -0.0000000000000000        0.0000000000000000     
   1121.1642025328440       -0.0000000000000000       -0.0000000000000000     
   1120.5517507061497       -0.0000000000000000       -0.0000000000000000     
   1119.8141856841391       -0.0000000000000000       -0.0000000000000000     
   1118.9551516849897       -0.0000000000000000       -0.0000000000000000     
   1117.9788681753093       -0.0000000000000000       -0.0000000000000000     
   1116.8900980920043       -0.0000000000000000       -0.0000000000000000     
   1115.6941125906510       -0.0000000000000000       -0.0000000000000000     
   1114.3966528016290       -0.0000000000000000       -0.0000000000000000     
   1113.0038891003378       -0.0000000000000000       -0.0000000000000000     
   1111.5223784119780       -0.0000000000000000       -0.0000000000000000     
   1109.9590200748494       -0.0000000000000000       -0.0000000000000000     
   1108.3210107794334       -0.0000000000000000       -0.0000000000000000     
   1106.6157990844090       -0.0000000000000000       -0.0000000000000000     
   1104.8510399862519       -0.0000000000000000       -0.0000000000000000     
   1103.0345499872881       -0.0000000000000000       -0.0000000000000000     
   1101.1742630693304       -0.0000000000000000       -0.0000000000000000     
   1099.2781879376062       -0.0000000000000000       -0.0000000000000000     
   1097.3543668539692       -0.0000000000000000       -0.0000000000000000     
   1095.4108363306450       -0.0000000000000000       -0.0000000000000000     
   1093.4555899072232       -0.0000000000000000       -0.0000000000000000     
   1091.4965431854525       -0.0000000000000000       -0.0000000000000000     
   1089.5415012495184       -0.0000000000000000       -0.0000000000000000     
   1087.5981285548369       -0.0000000000000000       -0.0000000000000000     
   1085.6739213266237       -0.0000000000000000       -0.0000000000000000     
   1083.7761824711577       -0.0000000000000000       -0.0000000000000000     
   1081.9119989681410       -0.0000000000000000       -0.0000000000000000     
   1080.0882216821321       -0.0000000000000000       -0.0000000000000000     
   1078.3114475048183       -0.0000000000000000       -0.0000000000000000     
   1076.5880037178970       -0.0000000000000000       -0.0000000000000000     
   1074.9239344484968       -0.0000000000000000       -0.0000000000000000     
   1073.3249890752022       -0.0000000000000000       -0.0000000000000000     
   1071.7966124326538       -0.0000000000000000       -0.0000000000000000     
   1070.3439366560840       -0.0000000000000000       -0.0000000000000000     
   1068.9717745037378       -0.0000000000000000       -0.0000000000000000     
   1067.6846139945903       -0.0000000000000000       -0.0000000000000000     
   1066.4866142007986       -0.0000000000000000       -0.0000000000000000     
   1065.3816020385800       -0.0000000000000000       -0.0000000000000000     
   1064.3730699073940       -0.0000000000000000       -0.0000000000000000     
   1063.4641740351576       -0.0000000000000000       -0.0000000000000000     
   1062.6577333964226       -0.0000000000000000       -0.0000000000000000     
   1061.9562290808185       -0.0000000000000000       -0.0000000000000000     
   1061.3618040003346       -0.0000000000000000       -0.0000000000000000     
   1060.8762628360721       -0.0000000000000000       -0.0000000000000000     
   1060.5010721376875       -0.0000000000000000       -0.0000000000000000     
   1060.2373605018452       -0.0000000000000000       -0.0000000000000000     
   1060.0859187693920       -0.0000000000000000       -0.0000000000000000     
   1060.0472001946343       -0.0000000000000000       -0.0000000000000000     
   1060.1213205539382       -0.0000000000000000       -0.0000000000000000     
   1060.3080581748272       -0.0000000000000000       -0.0000000000000000     
   1060.6068538807558       -0.0000000000000000       -0.0000000000000000     
   1061.0168108607811        0.0000000000000000       -0.0000000000000000     
   1061.5366944873460        0.0000000000000000       -0.0000000000000000     
   1062.1649321193133        0.0000000000000000       -0.0000000000000000     
   1062.8996129411789        0.0000000000000000       -0.0000000000000000     
   1063.7384879029833        0.0000000000000000       -0.0000000000000000     
   1064.6789698387634        0.0000000000000000       -0.0000000000000000     
   1065.7181338543180        0.0000000000000000       -0.0000000000000000     
   1066.8527180875180        0.0000000000000000       -0.0000000000000000     
   1068.0791249562101        0.0000000000000000       -0.0000000000000000     
   1069.3934230197740        0.0000000000000000       -0.0000000000000000     
   1070.7913495904256        0.0000000000000000       -0.0000000000000000     
   1072.2683142391641        0.0000000000000000       -0.0000000000000000     
   1073.8194033486150        0.0000000000000000       -0.0000000000000000     
   1075.4393858706312        0.0000000000000000       -0.0000000000000000     
   1077.1227204501095        0.0000000000000000       -0.0000000000000000     
   1078.8635640777359        0.0000000000000000       -0.0000000000000000     
   1080.6557824329561        0.0000000000000000       -0.0000000000000000     
   1082.4929620740995        0.0000000000000000       -0.0000000000000000     
   1084.3684246249104        0.0000000000000000       -0.0000000000000000     
   1086.2752430954838        0.0000000000000000       -0.0000000000000000     
   1088.2062604605105        0.0000000000000000       -0.0000000000000000     
   1090.1541105986219        0.0000000000000000       -0.0000000000000000     
   1092.1112416732910        0.0000000000000000       -0.0000000000000000     
   1094.0699420082183        0.0000000000000000       -0.0000000000000000     
   1096.0223684784003        0.0000000000000000       -0.0000000000000000     
   1097.9605774023196        0.0000000000000000       -0.0000000000000000     
   1099.8765578812447        0.0000000000000000       -0.0000000000000000     
   1101.7622674888771        0.0000000000000000       -0.0000000000000000     
   1103.6096701691376        0.0000000000000000       -0.0000000000000000     
   1105.4107761525447        0.0000000000000000       -0.0000000000000000     
   1107.1576836532156        0.0000000000000000       -0.0000000000000000     
   1108.8426220601150        0.0000000000000000       -0.0000000000000000     
   1110.4579962889447        0.0000000000000000       -0.0000000000000000     
   1111.9964319162273        0.0000000000000000       -0.0000000000000000     
   1113.4508206760479        0.0000000000000000       -0.0000000000000000     
   1114.8143658639065        0.0000000000000000       -0.0000000000000000     
   1116.0806271625042        0.0000000000000000       -0.0000000000000000     
   1117.2435643822985        0.0000000000000000       -0.0000000000000000     
   1118.2975795964085        0.0000000000000000       -0.0000000000000000     
   1119.2375571458861        0.0000000000000000       -0.0000000000000000     
   1120.0589009981425        0.0000000000000000       -0.0000000000000000     
   1120.7575689589044        0.0000000000000000       -0.0000000000000000     
   1121.3301032665363        0.0000000000000000       -0.0000000000000000     
   1121.7736571366961        0.0000000000000000       -0.0000000000000000     
   1122.0860168745112        0.0000000000000000       -0.0000000000000000     
   1122.2656192298512        0.0000000000000000       -0.0000000000000000     
   1122.3115637376163        0.0000000000000000       -0.0000000000000000     
   1122.2236198577004        0.0000000000000000       -0.0000000000000000     
   1122.0022288067094        0.0000000000000000       -0.0000000000000000     
   1121.6485000536741        0.0000000000000000       -0.0000000000000000     
   1121.1642025328404        0.0000000000000000        0.0000000000000000     
   1188.0972595191031        37.337460563026205        0.0000000000000000     
   1186.5430147331881        37.270216771622650        1.1712637477584587     
   1184.4965039963256        37.150848604579267        2.3373332781479772     
   1181.9798123210835        36.980360274015993        3.4956732529314438     
   1179.0195830782206        36.760015557538878        4.6438699170534621     
   1175.6464838180198        36.491310399103895        5.7796557742713883     
   1171.8946144359211        36.175941981279038        6.9009300077963927     
   1167.8008785318384        35.815775382828768        8.0057743035585549     
   1163.4043385942484        35.412808943244187        9.0924639346656875     
   1158.7455744050819        34.969139407539927        10.159474154693472     
   1153.8660619975142        34.486927829480280        11.205482114361685     
   1148.8075878323427        33.968367080861576        12.229364653599683     
   1143.6117098291318        33.415651661032697        13.230192424831905     
   1138.3192737249476        32.830950336694798        14.207220872395023     
   1132.9699901378744        32.216381978161436        15.159878628814010     
   1127.6020748465221        31.573994803735506        16.087753894709326     
   1122.2519522773284        30.905749105438371        16.990579350218621     
   1116.9540200904446        30.213503411432640        17.868216107524990     
   1111.7404711030674        29.499003945339783        18.720637162045126     
   1106.6411675827687        28.763877170624891        19.547910739374807     
   1101.6835621530388        28.009625158188609        20.350183870914680     
   1096.8926591315840        27.237623485113698        21.127666467088346     
   1092.2910100113888        26.449121359357566        21.880616096219935     
   1087.8987369340684        25.645243665964987        22.609323621601213     
   1083.7335783347921        24.826994641974920        23.314099800412741     
   1079.8109514030434        23.995262906667080        23.995262906669566     
   1076.1440265557933        23.150827598502541        24.653127406414008     
   1072.7438097193206        22.294365397797652        25.287993686748205     
   1069.6192288312641        21.426458242977535        25.900138820485211     
   1066.7772215816033        20.547601576715969        26.489808334520099     
   1064.2228219932240        19.658212985276666        27.057208941709998     
   1061.9592439884200        18.758641119126626        27.602502192301742     
   1059.9879605909628        17.849174804860279        28.125799000969067     
   1058.3087778715644        16.930052277322250        28.627155008569112     
   1056.9199031578657        16.001470476380206        29.106566743107791     
   1055.8180074003610        15.063594365031550        29.563968551484390     
   1054.9982819158010        14.116566234469300        29.999230281791501     
   1054.4544900229214        13.160514967491050        30.412155704756916     
   1054.1790143448454        12.195565234359245        30.802481671845388     
   1054.1629007808735        11.221846595100518        31.169878016141514     
   1054.3959003491523        10.239502479483100        31.513948209979205     
   1054.8665102716175        9.2486990107855185        31.834230799952103     
   1055.5620158128947        8.2496336322544828        32.130201645023789     
   1056.4685344936806        7.2425434861780413        32.401276986555395     
   1057.5710643733214        6.2277134851583771        32.646817379790534     
   1058.8535381315937        5.2054840039084826        32.866132514313712     
   1060.2988846709204        4.1762581082403623        33.058486945893932     
   1061.8890999016674        3.1405082264579951        33.223106753660197     
   1063.6053282589642        2.0987821577891319        33.359187124536625     
   1065.4279563241271        1.0517083035268917        33.465900851202058     
   1067.3367196829699       -3.4686724913316353E-012   33.542407710596926     
   1069.3108238443347       -1.0555411708696893        33.587864667411381     
   1071.3290796649894       -2.1140232168726656        33.601436821497330     
   1073.3700532847563       -3.1744628348609756        33.582308990423691     
   1075.4122300753093       -4.2357858812179483        33.529697789347672     
   1077.4341915589439       -5.2968293040113092        33.442864041151914     
   1079.4148036757019       -6.3563446045315457        33.321125321751623     
   1081.3334141890446       -7.4130028672194399        33.163868420129290     
   1083.1700564462651       -8.4654013627383247        32.970561471622162     
   1084.9056561776372       -9.5120716900086464        32.740765507890984     
   1086.5222375571693       -10.551489380604739        32.474145159352979     
   1088.0031243869973       -11.582084844594538        32.170478246957799     
   1089.3331320341531       -12.602255492569029        31.829664010971165     
   1090.4987456653430       -13.610378826357753        31.451729745389621     
   1091.4882804091303       -14.604826252957796        31.036835637690828     
   1092.2920193334380       -15.583977344655736        30.585277654165441     
   1092.9023255582811       -16.546234245134276        30.097488359820250     
   1093.3137254171579       -17.490035908101710        29.574035616954582     
   1093.5229603137466       -18.413871852745196        29.015619165691199     
   1093.5290057623506       -19.316295129572044        28.423065150347441     
   1093.3330570126034       -20.195934210796658        27.797318714757321     
   1092.9384815982144       -21.051503550527524        27.139434844727614     
   1092.3507400711821       -21.881812600172402        26.450567684176988     
   1091.5772770434139       -22.685773111766562        25.731958591016280     
   1090.6273854180383       -23.462404614030639        24.984923227872301     
   1089.5120473207119       -24.210838000372330        24.210838000364809     
   1088.2437557136941       -24.930317222232752        23.411126161527488     
   1086.8363209791066       -25.620199132765787        22.587243895486314     
   1085.3046668896750       -26.279951572747787        21.740666677642334     
   1083.6646203519983       -26.909149831178084        20.872876183801946     
   1081.9326991241649       -27.507471646064147        19.985347988760278     
   1080.1259013980070       -28.074690935716905        19.079540257776813     
   1078.2615007228237       -28.610670467339606        18.156883594243357     
   1076.3568492605884       -29.115353678054113        17.218772165606982     
   1074.4291918315969       -29.588755864426620        16.266556189057948     
   1072.4954926616924       -30.030954950967683        15.301535820132104     
   1070.5722762024759       -30.442082037119867        14.324956452395094     
   1068.6754828850644       -30.822311907128231        13.338005405610762     
   1066.8203402026725       -31.171853669149737        12.341809953753824     
   1065.0212491094703       -31.490941670164695        11.337436623099016     
   1063.2916853804893       -31.779826812763002        10.325891674330778     
   1061.6441153034409       -32.038768379592810        9.3081226708784701     
   1060.0899248684118       -32.268026451909208        8.2850210280351888     
   1058.6393614829753       -32.467854990797171        7.2574254333009778     
   1057.3014871636638       -32.638495633641028        6.2261260271765897     
   1056.0841421339558       -32.780172244489215        5.1918692346787161     
   1054.9939177868398       -32.893086245185138        4.1553631405218301     
   1054.0361380392940       -32.977412744455400        3.1172833046307069     
   1053.2148482090549       -33.033297474410624        2.0782789188866495     
   1052.5328106735619       -33.060854537894869        1.0389792103216402     
   1051.9915067198240       -33.060164965525196       -6.8376060397461755E-012
   1051.5911441556568       -33.031276077768574       -1.0380496697782415     
   1051.3306704209472       -32.974201644650933       -2.0745609244349459     
   1051.2077911064891       -32.888922833319640       -3.1089185452635402     
   1051.2189939519774       -32.775389931322572       -4.1404946383599714     
   1051.3595785484965       -32.633524830770156       -5.1686425661456648     
   1051.6236921091254       -32.463224255184826       -6.1926912235931235     
   1052.0043717889509       -32.264363706520335       -7.2119397422404221     
   1052.4935941276758       -32.036802104301572       -8.2256527061292370     
   1053.0823322492176       -31.780387081905086       -9.2330559646372627     
   1053.7606214783079       -31.494960896550353       -10.233333127382330     
   1054.5176340196772       -31.180366899567328       -11.225622825505983     
   1055.3417632870294       -30.836456502011057       -12.209016821227051     
   1056.2207183635619       -30.463096557880160       -13.182559043117749     
   1057.1416289214530       -30.060177073358734       -14.145245617646713     
   1058.0911607241419       -29.627619136055770       -15.096025957757433     
   1059.0556415840877       -29.165382943708853       -16.033804956296724     
   1060.0211973539515       -28.673475797909067       -16.957446315785422     
   1060.9738971973620       -28.151959915851485       -17.865777026298318     
   1061.8999070259902       -27.600959902754369       -18.757592980245089     
   1062.7856496147042       -27.020669720285930       -19.631665686984704     
   1063.6179695308599       -26.411358982941941       -20.486750022054810     
   1064.3843006542027       -25.773378415610679       -21.321592916178211     
   1065.0728337388707       -25.107164312190505       -22.134942859156052     
   1065.6726811975091       -24.413241847537449       -22.925560064488778     
   1066.1740360880217       -23.692227113410841       -23.692227113423101     
   1066.5683221725628       -22.944827773344059       -24.433759873504520     
   1066.8483319094944       -22.171842261050916       -25.149018467987133     
   1067.0083493413797       -21.374157481299662       -25.836918059859286     
   1067.0442550592934       -20.552745010031146       -26.496439208806081     
   1066.9536107535118       -19.708655830470519       -27.126637561863749     
   1066.7357212940462       -18.843013682472165       -27.726652649158261     
   1066.3916728065240       -17.957007141621581       -28.295715574869064     
   1065.9243457988039       -17.051880580950836       -28.833155419879663     
   1065.3384030263749       -16.128924199876625       -29.338404205503014     
   1064.6402524319913       -15.189463330712561       -29.811000305862329     
   1063.8379861280066       -14.234847251734571       -30.250590238327568     
   1062.9412969802356       -13.266437746556480       -30.656928805034902     
   1061.9613748741881       -12.285597652207295       -31.029877602052196     
   1060.9107851768590       -11.293679632926345       -31.369401954364495     
   1059.8033322339500       -10.292015403866428       -31.675566372865006     
   1058.6539109538508       -9.2819056095306252       -31.948528662551883     
   1057.4783496227053       -8.2646105370731391       -32.188532838082850     
   1056.2932470725873       -7.2413418159574103       -32.395901023054279     
   1055.1158071959064       -6.2132552243799486       -32.571024522562887     
   1053.9636735769211       -5.1814446908107454       -32.714354264874828     
   1052.8547667122939       -4.1469375473682506       -32.826390807799427     
   1051.8071259356134       -3.1106910617564392       -32.907674099353670     
   1050.8387577650994       -2.0735902471583287       -32.958773171421043     
   1049.9674919782151       -1.0364469255616062       -32.980275930396814     
   1049.2108462991339        1.0243941819084398E-011  -32.972779191368360     
   1048.5859001803783        1.0350831247194547       -32.936879083289988     
   1048.1091777812130        2.0682040445938186       -32.873161932894931     
   1047.7965399026648        3.0988298623063906       -32.782195715658261     
   1047.6630843395592        4.1264887796703444       -32.664522143755448     
   1047.7230538585727        5.1507648612336983       -32.520649444281808     
   1047.9897508104834        6.1712920514819469       -32.351045866476163     
   1048.4754572354209        7.1877475242282367       -32.156133944650158     
   1049.1913592214812        8.1998444374229074       -31.936285534145867     
   1050.1474742282358        9.2073241604632479       -31.691817630987583     
   1051.3525800857901        10.209948034745100       -31.422988981914425     
   1052.8141444254309        11.207488722242218       -31.129997490042186     
   1054.5382533881448        12.199721191877952       -30.812978422293977     
   1056.5295385916500        13.186413389868425       -30.472003427687067     
   1058.7911015148147        14.167316638537052       -30.107080380234599     
   1061.3244346811036        15.142155808755051       -29.718154066233396     
   1064.1293392910911        16.110619314532737       -29.305107742627136     
   1067.2038392698073        17.072348984713983       -28.867765600463549     
   1070.5440920593715        18.026929876484036       -28.405896174652845     
   1074.1442969024331        18.973880108699664       -27.919216747655877     
   1077.9966018276984        19.912640809990425       -27.407398799687030     
   1082.0910110639654        20.842566297146188       -26.870074560726469     
   1086.4152951695839        21.762914623300052       -26.306844719243475     
   1090.9549067624787        22.672838662437204       -25.717287338106182     
   1095.6929053594031        23.571377926125525       -25.100968018724895     
   1100.6098954635761        24.457451339073700       -24.457451339055986     
   1105.6839826520777        25.329851230789366       -23.786313568751972     