 VARIABLES = "x_1", "x_2", "x_3"
 ZONE F = POINT , I =         201  , J =         101
   1220.4977220859084        0.0000000000000000        0.0000000000000000     
   1220.4977220859084        0.0000000000000000        0.0000000000000000     
   1220.4977220859084        0.0000000000000000        0.0000000000000000     
   1220.4977220859084        0.0000000000000000        0.0000000000000000     
   1220.4977220859084        0.0000000000000000        0.0000000000000000     
   1220.4977220859084        0.0000000000000000        0.0000000000000000     
   1220.4977220859084        0.0000000000000000        0.0000000000000000     
   1220.4977220859084        0.0000000000000000        0.0000000000000000     
   1220.4977220859084        0.0000000000000000        0.0000000000000000     
   1220.4977220859084        0.0000000000000000        0.0000000000000000     
   1220.4977220859084        0.0000000000000000        0.0000000000000000     
   1220.4977220859084        0.0000000000000000        0.0000000000000000     
   1220.4977220859084        0.0000000000000000        0.0000000000000000     
   1220.4977220859084        0.0000000000000000        0.0000000000000000     
   1220.4977220859084        0.0000000000000000        0.0000000000000000     
   1220.4977220859084        0.0000000000000000        0.0000000000000000     
   1220.4977220859084        0.0000000000000000        0.0000000000000000     
   1220.4977220859084        0.0000000000000000        0.0000000000000000     
   1220.4977220859084        0.0000000000000000        0.0000000000000000     
   1220.4977220859084        0.0000000000000000        0.0000000000000000     
   1220.4977220859084        0.0000000000000000        0.0000000000000000     
   1220.4977220859084        0.0000000000000000        0.0000000000000000     
   1220.4977220859084        0.0000000000000000        0.0000000000000000     
   1220.4977220859084        0.0000000000000000        0.0000000000000000     
   1220.4977220859084        0.0000000000000000        0.0000000000000000     
   1220.4977220859084        0.0000000000000000        0.0000000000000000     
   1220.4977220859084        0.0000000000000000        0.0000000000000000     
   1220.4977220859084        0.0000000000000000        0.0000000000000000     
   1220.4977220859084        0.0000000000000000        0.0000000000000000     
   1220.4977220859084        0.0000000000000000        0.0000000000000000     
   1220.4977220859084        0.0000000000000000        0.0000000000000000     
   1220.4977220859084        0.0000000000000000        0.0000000000000000     
   1220.4977220859084        0.0000000000000000        0.0000000000000000     
   1220.4977220859084        0.0000000000000000        0.0000000000000000     
   1220.4977220859084        0.0000000000000000        0.0000000000000000     
   1220.4977220859084        0.0000000000000000        0.0000000000000000     
   1220.4977220859084        0.0000000000000000        0.0000000000000000     
   1220.4977220859084        0.0000000000000000        0.0000000000000000     
   1220.4977220859084        0.0000000000000000        0.0000000000000000     
   1220.4977220859084        0.0000000000000000        0.0000000000000000     
   1220.4977220859084        0.0000000000000000        0.0000000000000000     
   1220.4977220859084        0.0000000000000000        0.0000000000000000     
   1220.4977220859084        0.0000000000000000        0.0000000000000000     
   1220.4977220859084        0.0000000000000000        0.0000000000000000     
   1220.4977220859084        0.0000000000000000        0.0000000000000000     
   1220.4977220859084        0.0000000000000000        0.0000000000000000     
   1220.4977220859084        0.0000000000000000        0.0000000000000000     
   1220.4977220859084        0.0000000000000000        0.0000000000000000     
   1220.4977220859084        0.0000000000000000        0.0000000000000000     
   1220.4977220859084        0.0000000000000000        0.0000000000000000     
   1220.4977220859084       -0.0000000000000000        0.0000000000000000     
   1220.4977220859084       -0.0000000000000000        0.0000000000000000     
   1220.4977220859084       -0.0000000000000000        0.0000000000000000     
   1220.4977220859084       -0.0000000000000000        0.0000000000000000     
   1220.4977220859084       -0.0000000000000000        0.0000000000000000     
   1220.4977220859084       -0.0000000000000000        0.0000000000000000     
   1220.4977220859084       -0.0000000000000000        0.0000000000000000     
   1220.4977220859084       -0.0000000000000000        0.0000000000000000     
   1220.4977220859084       -0.0000000000000000        0.0000000000000000     
   1220.4977220859084       -0.0000000000000000        0.0000000000000000     
   1220.4977220859084       -0.0000000000000000        0.0000000000000000     
   1220.4977220859084       -0.0000000000000000        0.0000000000000000     
   1220.4977220859084       -0.0000000000000000        0.0000000000000000     
   1220.4977220859084       -0.0000000000000000        0.0000000000000000     
   1220.4977220859084       -0.0000000000000000        0.0000000000000000     
   1220.4977220859084       -0.0000000000000000        0.0000000000000000     
   1220.4977220859084       -0.0000000000000000        0.0000000000000000     
   1220.4977220859084       -0.0000000000000000        0.0000000000000000     
   1220.4977220859084       -0.0000000000000000        0.0000000000000000     
   1220.4977220859084       -0.0000000000000000        0.0000000000000000     
   1220.4977220859084       -0.0000000000000000        0.0000000000000000     
   1220.4977220859084       -0.0000000000000000        0.0000000000000000     
   1220.4977220859084       -0.0000000000000000        0.0000000000000000     
   1220.4977220859084       -0.0000000000000000        0.0000000000000000     
   1220.4977220859084       -0.0000000000000000        0.0000000000000000     
   1220.4977220859084       -0.0000000000000000        0.0000000000000000     
   1220.4977220859084       -0.0000000000000000        0.0000000000000000     
   1220.4977220859084       -0.0000000000000000        0.0000000000000000     
   1220.4977220859084       -0.0000000000000000        0.0000000000000000     
   1220.4977220859084       -0.0000000000000000        0.0000000000000000     
   1220.4977220859084       -0.0000000000000000        0.0000000000000000     
   1220.4977220859084       -0.0000000000000000        0.0000000000000000     
   1220.4977220859084       -0.0000000000000000        0.0000000000000000     
   1220.4977220859084       -0.0000000000000000        0.0000000000000000     
   1220.4977220859084       -0.0000000000000000        0.0000000000000000     
   1220.4977220859084       -0.0000000000000000        0.0000000000000000     
   1220.4977220859084       -0.0000000000000000        0.0000000000000000     
   1220.4977220859084       -0.0000000000000000        0.0000000000000000     
   1220.4977220859084       -0.0000000000000000        0.0000000000000000     
   1220.4977220859084       -0.0000000000000000        0.0000000000000000     
   1220.4977220859084       -0.0000000000000000        0.0000000000000000     
   1220.4977220859084       -0.0000000000000000        0.0000000000000000     
   1220.4977220859084       -0.0000000000000000        0.0000000000000000     
   1220.4977220859084       -0.0000000000000000        0.0000000000000000     
   1220.4977220859084       -0.0000000000000000        0.0000000000000000     
   1220.4977220859084       -0.0000000000000000        0.0000000000000000     
   1220.4977220859084       -0.0000000000000000        0.0000000000000000     
   1220.4977220859084       -0.0000000000000000        0.0000000000000000     
   1220.4977220859084       -0.0000000000000000        0.0000000000000000     
   1220.4977220859084       -0.0000000000000000        0.0000000000000000     
   1220.4977220859084       -0.0000000000000000       -0.0000000000000000     
   1220.4977220859084       -0.0000000000000000       -0.0000000000000000     
   1220.4977220859084       -0.0000000000000000       -0.0000000000000000     
   1220.4977220859084       -0.0000000000000000       -0.0000000000000000     
   1220.4977220859084       -0.0000000000000000       -0.0000000000000000     
   1220.4977220859084       -0.0000000000000000       -0.0000000000000000     
   1220.4977220859084       -0.0000000000000000       -0.0000000000000000     
   1220.4977220859084       -0.0000000000000000       -0.0000000000000000     
   1220.4977220859084       -0.0000000000000000       -0.0000000000000000     
   1220.4977220859084       -0.0000000000000000       -0.0000000000000000     
   1220.4977220859084       -0.0000000000000000       -0.0000000000000000     
   1220.4977220859084       -0.0000000000000000       -0.0000000000000000     
   1220.4977220859084       -0.0000000000000000       -0.0000000000000000     
   1220.4977220859084       -0.0000000000000000       -0.0000000000000000     
   1220.4977220859084       -0.0000000000000000       -0.0000000000000000     
   1220.4977220859084       -0.0000000000000000       -0.0000000000000000     
   1220.4977220859084       -0.0000000000000000       -0.0000000000000000     
   1220.4977220859084       -0.0000000000000000       -0.0000000000000000     
   1220.4977220859084       -0.0000000000000000       -0.0000000000000000     
   1220.4977220859084       -0.0000000000000000       -0.0000000000000000     
   1220.4977220859084       -0.0000000000000000       -0.0000000000000000     
   1220.4977220859084       -0.0000000000000000       -0.0000000000000000     
   1220.4977220859084       -0.0000000000000000       -0.0000000000000000     
   1220.4977220859084       -0.0000000000000000       -0.0000000000000000     
   1220.4977220859084       -0.0000000000000000       -0.0000000000000000     
   1220.4977220859084       -0.0000000000000000       -0.0000000000000000     
   1220.4977220859084       -0.0000000000000000       -0.0000000000000000     
   1220.4977220859084       -0.0000000000000000       -0.0000000000000000     
   1220.4977220859084       -0.0000000000000000       -0.0000000000000000     
   1220.4977220859084       -0.0000000000000000       -0.0000000000000000     
   1220.4977220859084       -0.0000000000000000       -0.0000000000000000     
   1220.4977220859084       -0.0000000000000000       -0.0000000000000000     
   1220.4977220859084       -0.0000000000000000       -0.0000000000000000     
   1220.4977220859084       -0.0000000000000000       -0.0000000000000000     
   1220.4977220859084       -0.0000000000000000       -0.0000000000000000     
   1220.4977220859084       -0.0000000000000000       -0.0000000000000000     
   1220.4977220859084       -0.0000000000000000       -0.0000000000000000     
   1220.4977220859084       -0.0000000000000000       -0.0000000000000000     
   1220.4977220859084       -0.0000000000000000       -0.0000000000000000     
   1220.4977220859084       -0.0000000000000000       -0.0000000000000000     
   1220.4977220859084       -0.0000000000000000       -0.0000000000000000     
   1220.4977220859084       -0.0000000000000000       -0.0000000000000000     
   1220.4977220859084       -0.0000000000000000       -0.0000000000000000     
   1220.4977220859084       -0.0000000000000000       -0.0000000000000000     
   1220.4977220859084       -0.0000000000000000       -0.0000000000000000     
   1220.4977220859084       -0.0000000000000000       -0.0000000000000000     
   1220.4977220859084       -0.0000000000000000       -0.0000000000000000     
   1220.4977220859084       -0.0000000000000000       -0.0000000000000000     
   1220.4977220859084       -0.0000000000000000       -0.0000000000000000     
   1220.4977220859084       -0.0000000000000000       -0.0000000000000000     
   1220.4977220859084        0.0000000000000000       -0.0000000000000000     
   1220.4977220859084        0.0000000000000000       -0.0000000000000000     
   1220.4977220859084        0.0000000000000000       -0.0000000000000000     
   1220.4977220859084        0.0000000000000000       -0.0000000000000000     
   1220.4977220859084        0.0000000000000000       -0.0000000000000000     
   1220.4977220859084        0.0000000000000000       -0.0000000000000000     
   1220.4977220859084        0.0000000000000000       -0.0000000000000000     
   1220.4977220859084        0.0000000000000000       -0.0000000000000000     
   1220.4977220859084        0.0000000000000000       -0.0000000000000000     
   1220.4977220859084        0.0000000000000000       -0.0000000000000000     
   1220.4977220859084        0.0000000000000000       -0.0000000000000000     
   1220.4977220859084        0.0000000000000000       -0.0000000000000000     
   1220.4977220859084        0.0000000000000000       -0.0000000000000000     
   1220.4977220859084        0.0000000000000000       -0.0000000000000000     
   1220.4977220859084        0.0000000000000000       -0.0000000000000000     
   1220.4977220859084        0.0000000000000000       -0.0000000000000000     
   1220.4977220859084        0.0000000000000000       -0.0000000000000000     
   1220.4977220859084        0.0000000000000000       -0.0000000000000000     
   1220.4977220859084        0.0000000000000000       -0.0000000000000000     
   1220.4977220859084        0.0000000000000000       -0.0000000000000000     
   1220.4977220859084        0.0000000000000000       -0.0000000000000000     
   1220.4977220859084        0.0000000000000000       -0.0000000000000000     
   1220.4977220859084        0.0000000000000000       -0.0000000000000000     
   1220.4977220859084        0.0000000000000000       -0.0000000000000000     
   1220.4977220859084        0.0000000000000000       -0.0000000000000000     
   1220.4977220859084        0.0000000000000000       -0.0000000000000000     
   1220.4977220859084        0.0000000000000000       -0.0000000000000000     
   1220.4977220859084        0.0000000000000000       -0.0000000000000000     
   1220.4977220859084        0.0000000000000000       -0.0000000000000000     
   1220.4977220859084        0.0000000000000000       -0.0000000000000000     
   1220.4977220859084        0.0000000000000000       -0.0000000000000000     
   1220.4977220859084        0.0000000000000000       -0.0000000000000000     
   1220.4977220859084        0.0000000000000000       -0.0000000000000000     
   1220.4977220859084        0.0000000000000000       -0.0000000000000000     
   1220.4977220859084        0.0000000000000000       -0.0000000000000000     
   1220.4977220859084        0.0000000000000000       -0.0000000000000000     
   1220.4977220859084        0.0000000000000000       -0.0000000000000000     
   1220.4977220859084        0.0000000000000000       -0.0000000000000000     
   1220.4977220859084        0.0000000000000000       -0.0000000000000000     
   1220.4977220859084        0.0000000000000000       -0.0000000000000000     
   1220.4977220859084        0.0000000000000000       -0.0000000000000000     
   1220.4977220859084        0.0000000000000000       -0.0000000000000000     
   1220.4977220859084        0.0000000000000000       -0.0000000000000000     
   1220.4977220859084        0.0000000000000000       -0.0000000000000000     
   1220.4977220859084        0.0000000000000000       -0.0000000000000000     
   1220.4977220859084        0.0000000000000000       -0.0000000000000000     
   1220.4977220859084        0.0000000000000000       -0.0000000000000000     
   1220.4977220859084        0.0000000000000000       -0.0000000000000000     
   1220.4977220859084        0.0000000000000000       -0.0000000000000000     
   1220.4977220859084        0.0000000000000000       -0.0000000000000000     
   1220.4977220859084        0.0000000000000000        0.0000000000000000     
   1220.1250913405640        38.343975726639208        0.0000000000000000     
   1219.1776590962322        38.295295723310694        1.2034781516096487     
   1218.2398433224130        38.209183252665582        2.4039180503753408     
   1217.3125394778808        38.085808071094718        3.6001688356712176     
   1216.3966147519925        37.925373865019438        4.7910889077045002     
   1215.4929075149246        37.728117751851471        5.9755468146255968     
   1214.6022268603251        37.494309768102475        7.1524221134092922     
   1213.7253522384456        37.224252345886327        8.3206062053524903     
   1212.8630331775826        36.918279778928195        9.4790031470756997     
   1212.0159890913797        36.576757679065153        10.626530437944524     
   1211.1849091693448        36.200082424097509        11.762119784844762     
   1210.3704523477159        35.788680597725921        12.884717845250540     
   1209.5732473576149        35.343008422190081        13.993286949519829     
   1208.7938928472713        34.863551184110094        15.086805803336551     
   1208.0329575749251        34.350822653921988        16.164270171193543     
   1207.2909806688976        33.805364499196131        17.224693541777235     
   1206.5684719511851        33.227745692030197        18.267107776073310     
   1205.8659123208331        32.618561910619789        19.290563738963669     
   1205.1837541932593        31.978434935027600        20.294131915030132     
   1204.5224219916156        31.308012037098830        21.276903009219193     
   1203.8823126862255        30.607965364404865        22.237988532957175     
   1203.2637963780901        29.878991318040477        23.176521376235350     
   1202.6672169224157        29.121809924051398        24.091656366112787     
   1202.0928925881119        28.337164198229161        24.982570812009751     
   1201.5411167491936        27.525819503979015        25.848465038089106     
   1201.0121586040343        26.688562902943641        26.688562902946405     
   1200.5062639184243        25.826202498050950        27.502112306753173     
   1200.0236557884418        24.939566768647680        28.288385685923075     
   1199.5645354191568        24.029503897381737        29.046680495296357     
   1199.1290829152540        23.096881088504443        29.776319677767031     
   1198.7174580797227        22.142583877280053        30.476652121208748     
   1198.3298012168198        21.167515430211548        31.147053102490304     
   1197.9662339355993        20.172595835820061        31.786924718310633     
   1197.6268599503808        19.158761385749280        32.395696302526751     
   1197.3117658746337        18.126963846004866        32.972824829596377     
   1197.0210220048414        17.078169718182316        33.517795303710535     
   1196.7546830910317        16.013359490583674        34.030121133150402     
   1196.5127890907668        14.933526879174465        34.509344489367557     
   1196.2953659035134        13.839678058384692        34.955036650257632     
   1196.1024260824413        12.732830881813410        35.366798327074136     
   1195.9339695208273        11.614014092952676        35.744259974411904     
   1195.7899841103990        10.484266526104205        36.087082082679458     
   1195.6704463690701        9.3446362977193758        36.394955452473873     
   1195.5753220357035        8.1961799884506590        36.667601450273686     
   1195.5045666296658        7.0399618162584501        36.904772244872021     
   1195.4581259731124        5.8770528009720486        37.106251023984861     
   1195.4359366741098        4.7085299207559244        37.271852190487735     
   1195.4379265688531        3.5354752609825493        37.401421537756619     
   1195.4640151214351        2.3589751560598944        37.494836403617583     
   1195.5141137797762        1.1801193248051729        37.552005802441201     
   1195.5881262865264       -3.8854689135445637E-012   37.572870534954561     
   1195.6859489439073       -1.1802889472335665        37.557403275382626     
   1195.8074708316799       -2.3596528874568246        37.505608635574404     
   1195.9525739775850       -3.5369973167501656        37.417523205813659     
   1196.1211334798163       -4.7112287434795261        37.293215572061797     
   1196.3130175812510       -5.8812555773137465        37.132786309428347     
   1196.5280876953977       -7.0459890196930175        36.936367951715212     
   1196.7661983841795       -8.2043439549739503        36.704124936929539     
   1197.0271972878834       -9.3552398414721019        36.436253528710473     
   1197.3109250078137       -10.497601601627309        36.132981713663696     
   1197.6172149423635       -11.630360510526479        35.794569074645381     
   1197.9458930774379       -12.752455082032739        35.421306640082953     
   1198.2967777323463       -13.862831951788802        35.013516709463445     
   1198.6696792624759       -14.960446756385045        34.571552655160829     
   1199.0643997202721       -16.044265008010452        34.095798700811407     
   1199.4807324762162       -17.113262963934748        33.586669676479382     
   1199.9184618017080       -18.166428490204094        33.044610750884935     
   1200.3773624159319       -19.202761918969308        32.470097140991811     
   1200.8571989989746       -20.221276898904161        31.863633799271845     
   1201.3577256736473       -21.221001238212040        31.225755078979674     
   1201.8786854586335       -22.200977739760706        30.557024377780319     
   1202.4198096957573       -23.160265027927096        29.858033760077920     
   1202.9808174543425       -24.097938366776575        29.129403558392934     
   1203.5614149157686       -25.013090469242105        28.371781954128931     
   1204.1612947415126       -25.904832297009637        27.585844538059224     
   1204.7801354280821       -26.772293850854261        26.772293850845941     
   1205.4176006524010       -27.614624951207407        25.931858903882894     
   1206.0733386113288       -28.430996008768759        25.065294680726105     
   1206.7469813591165       -29.220598785005432        24.173381619344454     
   1207.4381441467094       -29.982647142406073        23.256925075386764     
   1208.1464247668996       -30.716377784377663        22.316754766621688     
   1208.8714029094353       -31.421050984688037        21.353724198663368     
   1209.6126395302422       -32.095951306365748        20.368710072049378     
   1210.3696762389982       -32.740388309972573        19.362611670688707     
   1211.1420347093340       -33.353697251159815        18.336350231646772     
   1211.9292161159769       -33.935239767409477        17.290868296183017     
   1212.7307006031697       -34.484404553843760        16.227129041904494     
   1213.5459467886972       -35.000608027961356        15.146115595846881     
   1214.3743913078481       -35.483294983126711        14.048830328244049     
   1215.2154484016071       -35.931939230598921        12.936294126698623     
   1216.0685095533211       -36.346044229839052        11.809545650419594     
   1216.9329431780295       -36.725143706780834        10.669640564151456     
   1217.8080943685575       -37.068802259687146        9.5176507513807103     
   1218.6932847023736       -37.376615952146686        8.3546635063732708     
   1219.5878121130868       -37.648212892689472        7.1817807045695039     
   1220.4909508303326       -37.883253800419290        6.0001179508441362     
   1221.4019513916103       -38.081432555973379        4.8108037051258199     
   1222.3200407294901       -38.242476737029328        3.6149783848677854     
   1223.2444223373643       -38.366148137481545        2.4137934438660764     
   1224.1742765167364       -38.452243269311992        1.2084104269371752     
   1225.1087607087704       -38.500593846076576       -7.9628124448339589E-012
   1226.0470099125769       -38.511067246825803       -1.2102590449201860     
   1226.9881371924164       -38.483566959173572       -2.4211808099781038     
   1227.9312342757157       -38.418033000124389       -3.6315733376840988     
   1228.8753722434531       -38.314442313166872       -4.8402396829400063     
   1229.8196023141422       -38.172809140041707       -6.0459790112693597     
   1230.7629567222762       -37.993185365496288       -7.2475877232582055     
   1231.7044496917269       -37.775660833247827       -8.4438606051802640     
   1232.6430785041955       -37.520363631292120       -9.6335920056531315     
   1233.5778246624116       -37.227460344618287       -10.815577038043125     
   1234.5076551473564       -36.897156273322011       -11.988612808195148     
   1235.4315237683509       -36.529695614051640       -13.151499666912970     
   1236.3483726044199       -36.125361602674786       -14.303042486454371     
   1237.2571335348805       -35.684476616018792       -15.442051960135894     
   1238.1567298566583       -35.207402230517381       -16.567345923964176     
   1239.0460779853793       -34.694539235589772       -17.677750699026372     
   1239.9240892368048       -34.146327599586805       -18.772102453181898     
   1240.7896716847495       -33.563246386164899       -19.849248580403142     
   1241.6417320911353       -32.945813618990286       -20.908049095915317     
   1242.4791779034038       -32.294586092735877       -21.947378045086470     
   1243.3009193140704       -31.610159128411851       -22.966124923820082     
   1244.1058713767566       -30.893166271166457       -23.963196108005192     
   1244.8929561726472       -30.144278928809271       -24.937516289385965     
   1245.6611050209110       -29.364205949442763       -25.888029915023797     
   1246.4092607262471       -28.553693136739628       -26.813702627344242     
   1247.1363798563782       -27.713522701574146       -27.713522701588488     
   1247.8414350419855       -26.844512648903226       -28.586502477327649     
   1248.5234172912803       -25.947516098997767       -29.431679780548741     
   1249.1813383111587       -25.023420542345626       -30.248119332686382     
   1249.8142328266511       -24.073147027783286       -31.034914142855119     
   1250.4211608901924       -23.097649283662719       -31.791186879435301     
   1251.0012101721015       -22.097912772121688       -32.516091217083428     
   1251.5534982235370       -21.074953676798849       -33.208813155174276     
   1252.0771747031508       -20.029817824615449       -33.868572303642644     
   1252.5714235586370       -18.963579542535889       -34.494623132172798     
   1253.0354651544135       -17.877340450511603       -35.086256178690505     
   1253.4685583367436       -16.772228192111704       -35.642799213140258     
   1253.8700024277441       -15.649395104640092       -36.163618352586262     
   1254.2391391398917       -14.510016830837266       -36.648119123753368     
   1254.5753544028878       -13.355290874556660       -37.095747469230183     
   1254.8780800949846       -12.186435103094102       -37.505990693684261     
   1255.1467956712215       -11.004686199126468       -37.878378346594737     
   1255.3810296813872       -9.8112980654859463       -38.212483038185098     
   1255.5803611709146       -8.6075401862500538       -38.507921185439997     
   1255.7444209583985       -7.3946959478705585       -38.764353685313843     
   1255.8728927838929       -6.1740609242860378       -38.981486512482668     
   1255.9655143227023       -4.9469411301699084       -39.159071239254914     
   1256.0220780599202       -3.7146512466477777       -39.296905475537734     
   1256.0424320215843       -2.4785128239809264       -39.394833227052800     
   1256.0264803589328       -1.2398524658504295       -39.452745170306862     
   1255.9741837828874        1.2262670091837513E-011  -39.470578843144430     
   1255.8855598465630        1.2397133600140957       -39.448318750042866     
   1255.7606830742679        2.4779568568172983       -39.385996381648233     
   1255.5996849361693        3.7134020304592168       -39.283690148394683     
   1255.4027536684598        4.9447245535484825       -39.141525228394997     
   1255.1701339395966        6.1706060556330575       -38.959673330135409     
   1254.9021263638308        7.3897359318902165       -38.738352370849007     
   1254.5990868639672        8.6008131313661025       -38.477826071779020     
   1254.2614258859351        9.8025479201014161       -38.178403471870716     
   1253.8896074684146        10.993663614610156       -37.840438361748667     
   1253.4841481713981        12.172898281338110       -37.464328640141026     
   1253.0456158681536        13.339006397906600       -37.050515595202292     
   1252.5746284056579        14.490760472152015       -36.599483113459456     
   1252.0718521390820        15.626952615193675       -36.111756819360295     
   1251.5380003464456        16.746396065004607       -35.587903148637565     
   1250.9738315300008        17.847926657218821       -35.028528358913483     
   1250.3801476113517        18.930404240179740       -34.434277481159803     
   1249.7577920276919        19.992714031520805       -33.805833215792262     
   1249.1076477368729        21.033767913861627       -33.143914777319281     
   1248.4306351393300        22.052505667507184       -32.449276691579016     
   1247.7277099251103        23.047896138342217       -31.722707549688160     
   1246.9998608544661        24.018938339424853       -30.965028722888398     
   1246.2481074806133        24.964662485091623       -30.177093042514645     
   1245.4734978233591        25.884130956696257       -29.359783449320023     
   1244.6771060023548        26.776439199407040       -28.514011616380909     
   1243.8600298387387        27.640716549787278       -27.640716549767259     
   1243.0233884338961        28.476126994171874       -26.740863171104632     