 VARIABLES = "x_1", "x_2", "x_3"
 ZONE F = POINT , I =         201  , J =         101
   2922.3055714870143        0.0000000000000000        0.0000000000000000     
   2925.2047220836248        0.0000000000000000        0.0000000000000000     
   2928.4240535133818        0.0000000000000000        0.0000000000000000     
   2931.9539321417910        0.0000000000000000        0.0000000000000000     
   2935.7836708834193        0.0000000000000000        0.0000000000000000     
   2939.9015271163266        0.0000000000000000        0.0000000000000000     
   2944.2947023319043        0.0000000000000000        0.0000000000000000     
   2948.9493440425504        0.0000000000000000        0.0000000000000000     
   2953.8505505057497        0.0000000000000000        0.0000000000000000     
   2958.9823788545727        0.0000000000000000        0.0000000000000000     
   2964.3278572504041        0.0000000000000000        0.0000000000000000     
   2969.8690016925507        0.0000000000000000        0.0000000000000000     
   2975.5868381298451        0.0000000000000000        0.0000000000000000     
   2981.4614305202554        0.0000000000000000        0.0000000000000000     
   2987.4719154740542        0.0000000000000000        0.0000000000000000     
   2993.5965440931586        0.0000000000000000        0.0000000000000000     
   2999.8127315821303        0.0000000000000000        0.0000000000000000     
   3006.0971151539311        0.0000000000000000        0.0000000000000000     
   3012.4256206846599        0.0000000000000000        0.0000000000000000     
   3018.7735384852690        0.0000000000000000        0.0000000000000000     
   3025.1156084543222        0.0000000000000000        0.0000000000000000     
   3031.4261147539619        0.0000000000000000        0.0000000000000000     
   3037.6789900119657        0.0000000000000000        0.0000000000000000     
   3043.8479288971248        0.0000000000000000        0.0000000000000000     
   3049.9065107447677        0.0000000000000000        0.0000000000000000     
   3055.8283307265815        0.0000000000000000        0.0000000000000000     
   3061.5871388670157        0.0000000000000000        0.0000000000000000     
   3067.1569860112431        0.0000000000000000        0.0000000000000000     
   3072.5123756515609        0.0000000000000000        0.0000000000000000     
   3077.6284203251448        0.0000000000000000        0.0000000000000000     
   3082.4810011119416        0.0000000000000000        0.0000000000000000     
   3087.0469285929435        0.0000000000000000        0.0000000000000000     
   3091.3041034822463        0.0000000000000000        0.0000000000000000     
   3095.2316750269392        0.0000000000000000        0.0000000000000000     
   3098.8101951825488        0.0000000000000000        0.0000000000000000     
   3102.0217665234195        0.0000000000000000        0.0000000000000000     
   3104.8501818409763        0.0000000000000000        0.0000000000000000     
   3107.2810534211981        0.0000000000000000        0.0000000000000000     
   3109.3019300774640        0.0000000000000000        0.0000000000000000     
   3110.9024001461321        0.0000000000000000        0.0000000000000000     
   3112.0741788283585        0.0000000000000000        0.0000000000000000     
   3112.8111784795537        0.0000000000000000        0.0000000000000000     
   3113.1095607027869        0.0000000000000000        0.0000000000000000     
   3112.9677693882668        0.0000000000000000        0.0000000000000000     
   3112.3865441503194        0.0000000000000000        0.0000000000000000     
   3111.3689139377657        0.0000000000000000        0.0000000000000000     
   3109.9201709243548        0.0000000000000000        0.0000000000000000     
   3108.0478251136019        0.0000000000000000        0.0000000000000000     
   3105.7615404081375        0.0000000000000000        0.0000000000000000     
   3103.0730531887157        0.0000000000000000        0.0000000000000000     
   3099.9960747147052       -0.0000000000000000        0.0000000000000000     
   3096.5461788896077       -0.0000000000000000        0.0000000000000000     
   3092.7406771265578       -0.0000000000000000        0.0000000000000000     
   3088.5984821962220       -0.0000000000000000        0.0000000000000000     
   3084.1399630409710       -0.0000000000000000        0.0000000000000000     
   3079.3867925938985       -0.0000000000000000        0.0000000000000000     
   3074.3617906506552       -0.0000000000000000        0.0000000000000000     
   3069.0887638080972       -0.0000000000000000        0.0000000000000000     
   3063.5923444105083       -0.0000000000000000        0.0000000000000000     
   3057.8978303359163       -0.0000000000000000        0.0000000000000000     
   3052.0310273173022       -0.0000000000000000        0.0000000000000000     
   3046.0180953320078       -0.0000000000000000        0.0000000000000000     
   3039.8854004133714       -0.0000000000000000        0.0000000000000000     
   3033.6593730475074       -0.0000000000000000        0.0000000000000000     
   3027.3663741209029       -0.0000000000000000        0.0000000000000000     
   3021.0325691863600       -0.0000000000000000        0.0000000000000000     
   3014.6838116205522       -0.0000000000000000        0.0000000000000000     
   3008.3455350601171       -0.0000000000000000        0.0000000000000000     
   3002.0426553281104       -0.0000000000000000        0.0000000000000000     
   2995.7994819015476       -0.0000000000000000        0.0000000000000000     
   2989.6396388254502       -0.0000000000000000        0.0000000000000000     
   2983.5859948507082       -0.0000000000000000        0.0000000000000000     
   2977.6606024626826       -0.0000000000000000        0.0000000000000000     
   2971.8846453749788       -0.0000000000000000        0.0000000000000000     
   2966.2783939878932       -0.0000000000000000        0.0000000000000000     
   2960.8611682528472       -0.0000000000000000        0.0000000000000000     
   2955.6513073417436       -0.0000000000000000        0.0000000000000000     
   2950.6661454923124       -0.0000000000000000        0.0000000000000000     
   2945.9219933858230       -0.0000000000000000        0.0000000000000000     
   2941.4341244105271       -0.0000000000000000        0.0000000000000000     
   2937.2167651714262       -0.0000000000000000        0.0000000000000000     
   2933.2830896230048       -0.0000000000000000        0.0000000000000000     
   2929.6452162249934       -0.0000000000000000        0.0000000000000000     
   2926.3142075508504       -0.0000000000000000        0.0000000000000000     
   2923.3000718131766       -0.0000000000000000        0.0000000000000000     
   2920.6117658088219       -0.0000000000000000        0.0000000000000000     
   2918.2571988279869       -0.0000000000000000        0.0000000000000000     
   2916.2432371154273       -0.0000000000000000        0.0000000000000000     
   2914.5757085173404       -0.0000000000000000        0.0000000000000000     
   2913.2594069940969       -0.0000000000000000        0.0000000000000000     
   2912.2980967262838       -0.0000000000000000        0.0000000000000000     
   2911.6945155892558       -0.0000000000000000        0.0000000000000000     
   2911.4503778193948       -0.0000000000000000        0.0000000000000000     
   2911.5663757432862       -0.0000000000000000        0.0000000000000000     
   2912.0421804891657       -0.0000000000000000        0.0000000000000000     
   2912.8764416480280       -0.0000000000000000        0.0000000000000000     
   2914.0667858998809       -0.0000000000000000        0.0000000000000000     
   2915.6098146687191       -0.0000000000000000        0.0000000000000000     
   2917.5011009178465       -0.0000000000000000        0.0000000000000000     
   2919.7351852452898       -0.0000000000000000        0.0000000000000000     
   2922.3055714870320       -0.0000000000000000       -0.0000000000000000     
   2925.2047220836457       -0.0000000000000000       -0.0000000000000000     
   2928.4240535134040       -0.0000000000000000       -0.0000000000000000     
   2931.9539321418151       -0.0000000000000000       -0.0000000000000000     
   2935.7836708834452       -0.0000000000000000       -0.0000000000000000     
   2939.9015271163548       -0.0000000000000000       -0.0000000000000000     
   2944.2947023319339       -0.0000000000000000       -0.0000000000000000     
   2948.9493440425822       -0.0000000000000000       -0.0000000000000000     
   2953.8505505057828       -0.0000000000000000       -0.0000000000000000     
   2958.9823788546068       -0.0000000000000000       -0.0000000000000000     
   2964.3278572504405       -0.0000000000000000       -0.0000000000000000     
   2969.8690016925875       -0.0000000000000000       -0.0000000000000000     
   2975.5868381298837       -0.0000000000000000       -0.0000000000000000     
   2981.4614305202949       -0.0000000000000000       -0.0000000000000000     
   2987.4719154740942       -0.0000000000000000       -0.0000000000000000     
   2993.5965440931996       -0.0000000000000000       -0.0000000000000000     
   2999.8127315821707       -0.0000000000000000       -0.0000000000000000     
   3006.0971151539729       -0.0000000000000000       -0.0000000000000000     
   3012.4256206847026       -0.0000000000000000       -0.0000000000000000     
   3018.7735384853108       -0.0000000000000000       -0.0000000000000000     
   3025.1156084543636       -0.0000000000000000       -0.0000000000000000     
   3031.4261147540042       -0.0000000000000000       -0.0000000000000000     
   3037.6789900120070       -0.0000000000000000       -0.0000000000000000     
   3043.8479288971657       -0.0000000000000000       -0.0000000000000000     
   3049.9065107448068       -0.0000000000000000       -0.0000000000000000     
   3055.8283307266206       -0.0000000000000000       -0.0000000000000000     
   3061.5871388670530       -0.0000000000000000       -0.0000000000000000     
   3067.1569860112791       -0.0000000000000000       -0.0000000000000000     
   3072.5123756515954       -0.0000000000000000       -0.0000000000000000     
   3077.6284203251780       -0.0000000000000000       -0.0000000000000000     
   3082.4810011119730       -0.0000000000000000       -0.0000000000000000     
   3087.0469285929721       -0.0000000000000000       -0.0000000000000000     
   3091.3041034822736       -0.0000000000000000       -0.0000000000000000     
   3095.2316750269642       -0.0000000000000000       -0.0000000000000000     
   3098.8101951825706       -0.0000000000000000       -0.0000000000000000     
   3102.0217665234391       -0.0000000000000000       -0.0000000000000000     
   3104.8501818409936       -0.0000000000000000       -0.0000000000000000     
   3107.2810534212126       -0.0000000000000000       -0.0000000000000000     
   3109.3019300774758       -0.0000000000000000       -0.0000000000000000     
   3110.9024001461403       -0.0000000000000000       -0.0000000000000000     
   3112.0741788283649       -0.0000000000000000       -0.0000000000000000     
   3112.8111784795569       -0.0000000000000000       -0.0000000000000000     
   3113.1095607027873       -0.0000000000000000       -0.0000000000000000     
   3112.9677693882650       -0.0000000000000000       -0.0000000000000000     
   3112.3865441503135       -0.0000000000000000       -0.0000000000000000     
   3111.3689139377570       -0.0000000000000000       -0.0000000000000000     
   3109.9201709243439       -0.0000000000000000       -0.0000000000000000     
   3108.0478251135878       -0.0000000000000000       -0.0000000000000000     
   3105.7615404081212       -0.0000000000000000       -0.0000000000000000     
   3103.0730531886966       -0.0000000000000000       -0.0000000000000000     
   3099.9960747146833        0.0000000000000000       -0.0000000000000000     
   3096.5461788895846        0.0000000000000000       -0.0000000000000000     
   3092.7406771265314        0.0000000000000000       -0.0000000000000000     
   3088.5984821961943        0.0000000000000000       -0.0000000000000000     
   3084.1399630409405        0.0000000000000000       -0.0000000000000000     
   3079.3867925938666        0.0000000000000000       -0.0000000000000000     
   3074.3617906506215        0.0000000000000000       -0.0000000000000000     
   3069.0887638080617        0.0000000000000000       -0.0000000000000000     
   3063.5923444104710        0.0000000000000000       -0.0000000000000000     
   3057.8978303358790        0.0000000000000000       -0.0000000000000000     
   3052.0310273172631        0.0000000000000000       -0.0000000000000000     
   3046.0180953319677        0.0000000000000000       -0.0000000000000000     
   3039.8854004133300        0.0000000000000000       -0.0000000000000000     
   3033.6593730474660        0.0000000000000000       -0.0000000000000000     
   3027.3663741208620        0.0000000000000000       -0.0000000000000000     
   3021.0325691863177        0.0000000000000000       -0.0000000000000000     
   3014.6838116205104        0.0000000000000000       -0.0000000000000000     
   3008.3455350600752        0.0000000000000000       -0.0000000000000000     
   3002.0426553280699        0.0000000000000000       -0.0000000000000000     
   2995.7994819015066        0.0000000000000000       -0.0000000000000000     
   2989.6396388254097        0.0000000000000000       -0.0000000000000000     
   2983.5859948506691        0.0000000000000000       -0.0000000000000000     
   2977.6606024626440        0.0000000000000000       -0.0000000000000000     
   2971.8846453749416        0.0000000000000000       -0.0000000000000000     
   2966.2783939878573        0.0000000000000000       -0.0000000000000000     
   2960.8611682528131        0.0000000000000000       -0.0000000000000000     
   2955.6513073417095        0.0000000000000000       -0.0000000000000000     
   2950.6661454922796        0.0000000000000000       -0.0000000000000000     
   2945.9219933857926        0.0000000000000000       -0.0000000000000000     
   2941.4341244104985        0.0000000000000000       -0.0000000000000000     
   2937.2167651713999        0.0000000000000000       -0.0000000000000000     
   2933.2830896229793        0.0000000000000000       -0.0000000000000000     
   2929.6452162249702        0.0000000000000000       -0.0000000000000000     
   2926.3142075508295        0.0000000000000000       -0.0000000000000000     
   2923.3000718131575        0.0000000000000000       -0.0000000000000000     
   2920.6117658088051        0.0000000000000000       -0.0000000000000000     
   2918.2571988279719        0.0000000000000000       -0.0000000000000000     
   2916.2432371154155        0.0000000000000000       -0.0000000000000000     
   2914.5757085173304        0.0000000000000000       -0.0000000000000000     
   2913.2594069940901        0.0000000000000000       -0.0000000000000000     
   2912.2980967262783        0.0000000000000000       -0.0000000000000000     
   2911.6945155892531        0.0000000000000000       -0.0000000000000000     
   2911.4503778193948        0.0000000000000000       -0.0000000000000000     
   2911.5663757432881        0.0000000000000000       -0.0000000000000000     
   2912.0421804891703        0.0000000000000000       -0.0000000000000000     
   2912.8764416480344        0.0000000000000000       -0.0000000000000000     
   2914.0667858998895        0.0000000000000000       -0.0000000000000000     
   2915.6098146687300        0.0000000000000000       -0.0000000000000000     
   2917.5011009178606        0.0000000000000000       -0.0000000000000000     
   2919.7351852453062        0.0000000000000000       -0.0000000000000000     
   2922.3055714870502        0.0000000000000000        0.0000000000000000     
   3498.0117468190720        109.92944777831087        0.0000000000000000     
   3484.1408260143348        109.43950808021437        3.4392750965825214     
   3469.8768545476578        108.83009723111317        6.8470093544782866     
   3455.2693802271588        108.10430532959541        10.218865523950230     
   3440.3692561825897        107.26541712798682        13.550773474542003     
   3425.2280479779197        106.31687467865260        16.838938693033384     
   3409.8974570422506        105.26224034867468        20.079846254893912     
   3394.4287694629247        104.10516090117964        23.270260467684071     
   3378.8723376572589        102.84933326073890        26.407220474276517     
   3363.2771008522427        101.49847248933146        29.488032175418411     
   3347.6901487261571        100.05628240310426        32.510256884612815     
   3332.1563310636725        98.526429162919484        35.471697164073362     
   3316.7179148957798        96.912518077156932        38.370380309864700     
   3301.4142893747489        95.218073766452704        41.204539959113021     
   3286.2817175959776        93.446523759236158        43.972596284551855     
   3271.3531337357922        91.601185515569867        46.673135224046874     
   3256.6579832288412        89.685256815682692        49.304887167528776     
   3242.2221032545626        87.701809398897083        51.866705493262536     
   3228.0676405259869        85.653785698039655        54.357545311691396     
   3214.2130032582686        83.543998483168068        56.776442740036721     
   3200.6728442175026        81.375133205511233        59.122494995910266     
   3187.4580718898937        79.149752816705245        61.394841564565162     
   3174.5758870439131        76.870304828416735        63.592646662907597     
   3162.0298422604988        74.539130371963850        65.715083194513312     
   3149.8199223567699        72.158475015322722        67.761318363864603     
   3137.9426440062630        69.730501094786433        69.730501094793652     
   3126.3911732443844        67.257301319516571        71.621751377426762     
   3115.1554599240267        64.740913408451263        73.434151649320100     
   3104.2223885373760        62.183335519863427        75.166740299373913     
   3093.5759451315917        59.586542233845421        76.818507366815837     
   3083.1974003054552        56.952500846896775        78.388392491298163     
   3073.0655084701898        54.283187735580618        79.875285153184493     
   3063.1567236806213        51.580604543070748        81.278027224644902     
   3053.4454323847340        48.846793938713844        82.595417831536977     
   3043.9042033942324        46.083854697045432        83.826220502621453     
   3034.5040552421033        43.293955839755931        84.969172555996252     
   3025.2147408637102        40.479349582773793        86.022996642456803     
   3016.0050492174646        37.642382831896533        86.986414331775237     
   3006.8431230542310        34.785506975285635        87.858161590849875     
   2997.6967915605169        31.911285730695376        88.637005962841044     
   2988.5339160516978        29.022400820505336        89.321765214596013     
   2979.3227462955533        26.121655269328226        89.911327177026678     
   2970.0322844245857        23.211974147820943        90.404670461074815     
   2960.6326527732858        20.296402622710993        90.800885692181794     
   2951.0954613822969        17.378101216990743        91.099196870676892     
   2941.3941703760706        14.460338235352250        91.298982436223781     
   2931.5044419756887        11.546479367412822        91.399795593448360     
   2921.4044765848507        8.6399745438346880        91.401383445019846     
   2911.0753272128022        5.7443421863403916        91.303704479439347     
   2900.5011864965777        2.8631510597418828        91.106943974875549     
   2889.6696407734635       -9.3909610783036665E-012   90.811526908347773     
   2878.5718860417073       -2.8415041457275643        90.418128001535109     
   2867.2029012324283       -5.6577699753892912        89.927678589945515     
   2855.5615749873800       -8.4452459472983588        89.341370069849177     
   2843.6507830742480       -11.200445281542656        88.660653755299421     
   2831.4774146424502       -13.919970853926454        87.887237063145847     
   2819.0523466884952       -16.600539581953825        87.023076034082962     
   2806.3903673153372       -19.239005811216501        86.070364289041578     
   2793.5100495855295       -21.832383234605881        85.031518609029362     
   2780.4335789334491       -24.377864915280590        83.909161409350020     
   2767.1865381698785       -26.872841035722992        82.706100452737260     
   2753.7976550403323       -29.314914057340356        81.425306207564745     
   2740.2985180520027       -31.701911045258559        80.069887304798144     
   2726.7232668377737       -34.031892988251897        78.643064579338827     
   2713.1082636648525       -36.303161021056916        77.148144197263520     
   2699.4917528165897       -38.514259532584404        75.588490370376917     
   2685.9135144859210       -40.663976215947727        73.967498144382887     
   2672.4145195341525       -42.751339182310765        72.288566718408148     
   2659.0365910136129       -44.775611318336573        70.555073713635039     
   2645.8220777572260       -46.736282115047018        68.770350759826584     
   2632.8135446357928       -48.633057233305514        66.937660713141170     
   2620.0534833098541       -50.465846097590202        65.060176759454293     
   2607.5840464917042       -52.234747825421465        63.140963596925310     
   2595.4468079165167       -53.940035805372588        61.182960832041033     
   2583.6825494278164       -55.582141233002488        59.188968666786330     
   2572.3310758354901       -57.161635902539132        57.161635902521368     
   2561.4310575223562       -58.679214534093454        55.103450239770638     
   2551.0199001715096       -60.135676893060705        53.016730813250696     
   2541.1336404690187       -61.531909931605050        50.903622868505273     
   2531.8068662086134       -62.868870153095237        48.766094460578060     
   2523.0726588861935       -64.147566370305967        46.605935036057552     
   2514.9625566182167       -65.369042998200925        44.424755747170245     
   2507.5065350431332       -66.534363993082394        42.223991339820785     
   2500.7330037604825       -67.644597522546789        40.004903455899246     
   2494.6688158190750       -68.700801425579940        37.768585193068724     
   2489.3392877738256       -69.704009499638175        35.515966771851645     
   2484.7682278807297       -70.655218631934900        33.247822169415585     
   2480.9779700818540       -71.555376775496796        30.964776591316202     
   2477.9894115384459       -72.405371756883000        28.667314665946186     
   2475.8220515929584       -73.206020891708476        26.355789260990576     
   2474.4940301732795       -73.958061376152415        24.030430836298841     
   2474.0221637895761       -74.662141417303218        21.691357262827683     
   2474.4219774116873       -75.318812062303962        19.338584052322709     
   2475.7077306499718       -75.928519685626185        16.972034956899620     
   2477.8924367929644       -76.491599095216642        14.591552911409639     
   2480.9878733803293       -77.008267221552984        12.196911304232483     
   2485.0045831093171       -77.478617358636242        9.7878255737647279     
   2489.9518639883909       -77.902613932493225        7.3639651382197302     
   2495.8377477644044       -78.280087780721985        4.9249656752946853     
   2502.6689657623242       -78.610731935874554        2.4704417756632404     
   2510.4509013920760       -78.894097915923282       -1.6317122463628747E-011
   2519.1875286994423       -79.129592536608271       -2.4867476269739690     
   2528.8813364713519       -79.316475273010596       -4.9901696495505954     
   2539.5332375552248       -79.453856211139154       -7.5106007064865832     
   2551.1424632223980       -79.540694644534369       -10.048326515633084     
   2563.7064426026836       -79.575798385728945       -12.603568290719560     
   2577.2206674462809       -79.557823877672746       -15.176466570992069     
   2591.6785427364089       -79.485277205680092       -17.767064455909097     
   2607.0712239863537       -79.356516125777190       -20.375290251936281     
   2623.3874424130008       -79.169753240113863       -23.000939557111106     
   2640.6133195892812       -78.923060463866875       -25.643656831710786     
   2658.7321736425474       -78.614374940184149       -28.302916530262593     
   2677.7243195854653       -78.241506569485352       -30.978003901411139     
   2697.5668669381935       -77.802147325982062       -33.667995597801266     
   2718.2335184201174       -77.293882536640567       -36.371740277980734     
   2739.6943741467503       -76.714204294895168       -39.087839425986893     
   2761.9157464479931       -76.060527172046093       -41.814628661090701     
   2784.8599911082006       -75.330206372225035       -44.550159859140429     
   2808.4853614899102       -74.520558450847631       -47.292184456700056     
   2832.7458926092822       -73.628884680453510       -50.038138357917276     
   2857.5913227429523       -72.652497100788878       -52.785128909536880     
   2882.9670605177225       -71.588747231222158       -55.529924448997470     
   2908.8142056160727       -70.435057352845391       -58.268946961001305     
   2935.0696311682327       -69.188954185201254       -60.998268395869623     
   2961.6661355415517       -67.848104689508247       -63.713611204729936     
   2988.5326705289954       -66.410353628397317       -66.410353628431693     
   3015.5946518375481       -64.873762404350856       -69.083540235598591     
   3042.7743562528258       -63.236648589081426       -71.727898137456862     
   3069.9914078958982       -61.497625448861186       -74.337859210978806     
   3097.1633536025633       -59.655640672063065       -76.907588536627458     
   3124.2063246835869       -57.710013421373461       -79.431019103372137     
   3151.0357792377708       -55.660468771130532       -81.901892654359202     
   3177.5673158927752       -53.507168556840590       -84.313806346474337     
   3203.7175464786210       -51.250737665355565       -86.660264683033461     
   3229.4050118602777       -48.892284835531811       -88.934735960033223     
   3254.5511221538795       -46.433417123728049       -91.130712253594396     
   3279.0811000188905       -43.876247317232220       -93.241771781385054     
   3302.9249038442681       -41.223393749858026       -95.261642306304395     
   3326.0181065966103       -38.477972182786083       -97.184264128372035     
   3348.3027060022469       -35.643579652501934       -99.003851140943084     
   3369.7278426706189       -32.724270446007388       -100.71494841784677     
   3390.2504047487400       -29.724524628826096       -102.31248485329111     
   3409.8355006721281       -26.649209809917661       -103.79181949682997     
   3428.4567854248476       -23.503537065397722       -105.14878040757722     
   3446.0966302560523       -20.293012146751984       -106.37969508720548     
   3462.7461307901876       -17.023383257714155       -107.48141182849524     
   3478.4049536486878       -13.700586788699230       -108.45131162089270     
   3493.0810267985498       -10.330692443624319       -109.28731057062546     
   3506.7900835946502       -6.9198491799432498       -109.98785310393063     
   3519.5550746572558       -3.4742333113575556       -110.55189651227127     
   3531.4054651406018        3.4478782079024785E-011  -110.97888765446007     
   3542.3764374793404        3.4967608006248665       -111.26873284170819     
   3552.5080212878997        7.0100630867801899       -111.42176209059291     
   3561.8441727380018        10.534057583725041       -111.43868903233923     
   3570.4318255135895        14.063058140344372       -111.32056781477461     
   3578.3199344484278        17.591561541698173       -111.06874832916573     
   3585.5585313315046        21.114260752470756       -110.68483104375036     
   3592.1978102793546        24.626051796628783       -110.17062263679240     
   3598.2872576885693        28.122034645901845       -109.52809350306748     
   3603.8748392541952        31.597508629096669       -108.75933806771779     
   3609.0062540127687        35.047962984533385       -107.86653868890453     
   3613.7242629600182        38.469063259518244       -106.85193377321478     
   3618.0680975939467        41.856634315595549       -105.71779057171734     
   3622.0729518055887        45.206640729076298       -104.46638297484589     
   3625.7695589162877        48.515165386301774       -103.09997448441251     
   3629.1838543504068        51.778387065689294       -101.62080641314796     
   3632.3367234228972        54.992557777091456       -100.03109124716187     
   3635.2438329813790        58.153980596294531       -98.333011004569812     
   3637.9155451287161        61.258988690929641       -96.528720333502037     
   3640.3569109122482        64.303926185439863       -94.620354013589179     
   3642.5677416425106        67.285131458121825       -92.610038455416657     
   3644.5427553395784        70.198923403180089       -90.499906730988528     
   3646.2717956430515        73.041591125187566       -88.292116613809185     
   3647.7401203114632        75.809387461994731       -85.988871059005291     
   3648.9287561352062        78.498526654379916       -83.592440511707096     
   3649.8149166608328        81.105186396002040       -81.105186395943292     
   3650.3724785520330        83.625514405037762       -78.529585107414164     