 VARIABLES = "x_1", "x_2", "x_3"
 ZONE F = POINT , I =         201  , J =         101
   2266.0034841048559        0.0000000000000000        0.0000000000000000     
   2266.0034841048559        0.0000000000000000        0.0000000000000000     
   2266.0034841048559        0.0000000000000000        0.0000000000000000     
   2266.0034841048559        0.0000000000000000        0.0000000000000000     
   2266.0034841048559        0.0000000000000000        0.0000000000000000     
   2266.0034841048559        0.0000000000000000        0.0000000000000000     
   2266.0034841048559        0.0000000000000000        0.0000000000000000     
   2266.0034841048559        0.0000000000000000        0.0000000000000000     
   2266.0034841048559        0.0000000000000000        0.0000000000000000     
   2266.0034841048559        0.0000000000000000        0.0000000000000000     
   2266.0034841048559        0.0000000000000000        0.0000000000000000     
   2266.0034841048559        0.0000000000000000        0.0000000000000000     
   2266.0034841048559        0.0000000000000000        0.0000000000000000     
   2266.0034841048559        0.0000000000000000        0.0000000000000000     
   2266.0034841048559        0.0000000000000000        0.0000000000000000     
   2266.0034841048559        0.0000000000000000        0.0000000000000000     
   2266.0034841048559        0.0000000000000000        0.0000000000000000     
   2266.0034841048559        0.0000000000000000        0.0000000000000000     
   2266.0034841048559        0.0000000000000000        0.0000000000000000     
   2266.0034841048559        0.0000000000000000        0.0000000000000000     
   2266.0034841048559        0.0000000000000000        0.0000000000000000     
   2266.0034841048559        0.0000000000000000        0.0000000000000000     
   2266.0034841048559        0.0000000000000000        0.0000000000000000     
   2266.0034841048559        0.0000000000000000        0.0000000000000000     
   2266.0034841048559        0.0000000000000000        0.0000000000000000     
   2266.0034841048559        0.0000000000000000        0.0000000000000000     
   2266.0034841048559        0.0000000000000000        0.0000000000000000     
   2266.0034841048559        0.0000000000000000        0.0000000000000000     
   2266.0034841048559        0.0000000000000000        0.0000000000000000     
   2266.0034841048559        0.0000000000000000        0.0000000000000000     
   2266.0034841048559        0.0000000000000000        0.0000000000000000     
   2266.0034841048559        0.0000000000000000        0.0000000000000000     
   2266.0034841048559        0.0000000000000000        0.0000000000000000     
   2266.0034841048559        0.0000000000000000        0.0000000000000000     
   2266.0034841048559        0.0000000000000000        0.0000000000000000     
   2266.0034841048559        0.0000000000000000        0.0000000000000000     
   2266.0034841048559        0.0000000000000000        0.0000000000000000     
   2266.0034841048559        0.0000000000000000        0.0000000000000000     
   2266.0034841048559        0.0000000000000000        0.0000000000000000     
   2266.0034841048559        0.0000000000000000        0.0000000000000000     
   2266.0034841048559        0.0000000000000000        0.0000000000000000     
   2266.0034841048559        0.0000000000000000        0.0000000000000000     
   2266.0034841048559        0.0000000000000000        0.0000000000000000     
   2266.0034841048559        0.0000000000000000        0.0000000000000000     
   2266.0034841048559        0.0000000000000000        0.0000000000000000     
   2266.0034841048559        0.0000000000000000        0.0000000000000000     
   2266.0034841048559        0.0000000000000000        0.0000000000000000     
   2266.0034841048559        0.0000000000000000        0.0000000000000000     
   2266.0034841048559        0.0000000000000000        0.0000000000000000     
   2266.0034841048559        0.0000000000000000        0.0000000000000000     
   2266.0034841048559       -0.0000000000000000        0.0000000000000000     
   2266.0034841048559       -0.0000000000000000        0.0000000000000000     
   2266.0034841048559       -0.0000000000000000        0.0000000000000000     
   2266.0034841048559       -0.0000000000000000        0.0000000000000000     
   2266.0034841048559       -0.0000000000000000        0.0000000000000000     
   2266.0034841048559       -0.0000000000000000        0.0000000000000000     
   2266.0034841048559       -0.0000000000000000        0.0000000000000000     
   2266.0034841048559       -0.0000000000000000        0.0000000000000000     
   2266.0034841048559       -0.0000000000000000        0.0000000000000000     
   2266.0034841048559       -0.0000000000000000        0.0000000000000000     
   2266.0034841048559       -0.0000000000000000        0.0000000000000000     
   2266.0034841048559       -0.0000000000000000        0.0000000000000000     
   2266.0034841048559       -0.0000000000000000        0.0000000000000000     
   2266.0034841048559       -0.0000000000000000        0.0000000000000000     
   2266.0034841048559       -0.0000000000000000        0.0000000000000000     
   2266.0034841048559       -0.0000000000000000        0.0000000000000000     
   2266.0034841048559       -0.0000000000000000        0.0000000000000000     
   2266.0034841048559       -0.0000000000000000        0.0000000000000000     
   2266.0034841048559       -0.0000000000000000        0.0000000000000000     
   2266.0034841048559       -0.0000000000000000        0.0000000000000000     
   2266.0034841048559       -0.0000000000000000        0.0000000000000000     
   2266.0034841048559       -0.0000000000000000        0.0000000000000000     
   2266.0034841048559       -0.0000000000000000        0.0000000000000000     
   2266.0034841048559       -0.0000000000000000        0.0000000000000000     
   2266.0034841048559       -0.0000000000000000        0.0000000000000000     
   2266.0034841048559       -0.0000000000000000        0.0000000000000000     
   2266.0034841048559       -0.0000000000000000        0.0000000000000000     
   2266.0034841048559       -0.0000000000000000        0.0000000000000000     
   2266.0034841048559       -0.0000000000000000        0.0000000000000000     
   2266.0034841048559       -0.0000000000000000        0.0000000000000000     
   2266.0034841048559       -0.0000000000000000        0.0000000000000000     
   2266.0034841048559       -0.0000000000000000        0.0000000000000000     
   2266.0034841048559       -0.0000000000000000        0.0000000000000000     
   2266.0034841048559       -0.0000000000000000        0.0000000000000000     
   2266.0034841048559       -0.0000000000000000        0.0000000000000000     
   2266.0034841048559       -0.0000000000000000        0.0000000000000000     
   2266.0034841048559       -0.0000000000000000        0.0000000000000000     
   2266.0034841048559       -0.0000000000000000        0.0000000000000000     
   2266.0034841048559       -0.0000000000000000        0.0000000000000000     
   2266.0034841048559       -0.0000000000000000        0.0000000000000000     
   2266.0034841048559       -0.0000000000000000        0.0000000000000000     
   2266.0034841048559       -0.0000000000000000        0.0000000000000000     
   2266.0034841048559       -0.0000000000000000        0.0000000000000000     
   2266.0034841048559       -0.0000000000000000        0.0000000000000000     
   2266.0034841048559       -0.0000000000000000        0.0000000000000000     
   2266.0034841048559       -0.0000000000000000        0.0000000000000000     
   2266.0034841048559       -0.0000000000000000        0.0000000000000000     
   2266.0034841048559       -0.0000000000000000        0.0000000000000000     
   2266.0034841048559       -0.0000000000000000        0.0000000000000000     
   2266.0034841048559       -0.0000000000000000        0.0000000000000000     
   2266.0034841048559       -0.0000000000000000       -0.0000000000000000     
   2266.0034841048559       -0.0000000000000000       -0.0000000000000000     
   2266.0034841048559       -0.0000000000000000       -0.0000000000000000     
   2266.0034841048559       -0.0000000000000000       -0.0000000000000000     
   2266.0034841048559       -0.0000000000000000       -0.0000000000000000     
   2266.0034841048559       -0.0000000000000000       -0.0000000000000000     
   2266.0034841048559       -0.0000000000000000       -0.0000000000000000     
   2266.0034841048559       -0.0000000000000000       -0.0000000000000000     
   2266.0034841048559       -0.0000000000000000       -0.0000000000000000     
   2266.0034841048559       -0.0000000000000000       -0.0000000000000000     
   2266.0034841048559       -0.0000000000000000       -0.0000000000000000     
   2266.0034841048559       -0.0000000000000000       -0.0000000000000000     
   2266.0034841048559       -0.0000000000000000       -0.0000000000000000     
   2266.0034841048559       -0.0000000000000000       -0.0000000000000000     
   2266.0034841048559       -0.0000000000000000       -0.0000000000000000     
   2266.0034841048559       -0.0000000000000000       -0.0000000000000000     
   2266.0034841048559       -0.0000000000000000       -0.0000000000000000     
   2266.0034841048559       -0.0000000000000000       -0.0000000000000000     
   2266.0034841048559       -0.0000000000000000       -0.0000000000000000     
   2266.0034841048559       -0.0000000000000000       -0.0000000000000000     
   2266.0034841048559       -0.0000000000000000       -0.0000000000000000     
   2266.0034841048559       -0.0000000000000000       -0.0000000000000000     
   2266.0034841048559       -0.0000000000000000       -0.0000000000000000     
   2266.0034841048559       -0.0000000000000000       -0.0000000000000000     
   2266.0034841048559       -0.0000000000000000       -0.0000000000000000     
   2266.0034841048559       -0.0000000000000000       -0.0000000000000000     
   2266.0034841048559       -0.0000000000000000       -0.0000000000000000     
   2266.0034841048559       -0.0000000000000000       -0.0000000000000000     
   2266.0034841048559       -0.0000000000000000       -0.0000000000000000     
   2266.0034841048559       -0.0000000000000000       -0.0000000000000000     
   2266.0034841048559       -0.0000000000000000       -0.0000000000000000     
   2266.0034841048559       -0.0000000000000000       -0.0000000000000000     
   2266.0034841048559       -0.0000000000000000       -0.0000000000000000     
   2266.0034841048559       -0.0000000000000000       -0.0000000000000000     
   2266.0034841048559       -0.0000000000000000       -0.0000000000000000     
   2266.0034841048559       -0.0000000000000000       -0.0000000000000000     
   2266.0034841048559       -0.0000000000000000       -0.0000000000000000     
   2266.0034841048559       -0.0000000000000000       -0.0000000000000000     
   2266.0034841048559       -0.0000000000000000       -0.0000000000000000     
   2266.0034841048559       -0.0000000000000000       -0.0000000000000000     
   2266.0034841048559       -0.0000000000000000       -0.0000000000000000     
   2266.0034841048559       -0.0000000000000000       -0.0000000000000000     
   2266.0034841048559       -0.0000000000000000       -0.0000000000000000     
   2266.0034841048559       -0.0000000000000000       -0.0000000000000000     
   2266.0034841048559       -0.0000000000000000       -0.0000000000000000     
   2266.0034841048559       -0.0000000000000000       -0.0000000000000000     
   2266.0034841048559       -0.0000000000000000       -0.0000000000000000     
   2266.0034841048559       -0.0000000000000000       -0.0000000000000000     
   2266.0034841048559       -0.0000000000000000       -0.0000000000000000     
   2266.0034841048559       -0.0000000000000000       -0.0000000000000000     
   2266.0034841048559        0.0000000000000000       -0.0000000000000000     
   2266.0034841048559        0.0000000000000000       -0.0000000000000000     
   2266.0034841048559        0.0000000000000000       -0.0000000000000000     
   2266.0034841048559        0.0000000000000000       -0.0000000000000000     
   2266.0034841048559        0.0000000000000000       -0.0000000000000000     
   2266.0034841048559        0.0000000000000000       -0.0000000000000000     
   2266.0034841048559        0.0000000000000000       -0.0000000000000000     
   2266.0034841048559        0.0000000000000000       -0.0000000000000000     
   2266.0034841048559        0.0000000000000000       -0.0000000000000000     
   2266.0034841048559        0.0000000000000000       -0.0000000000000000     
   2266.0034841048559        0.0000000000000000       -0.0000000000000000     
   2266.0034841048559        0.0000000000000000       -0.0000000000000000     
   2266.0034841048559        0.0000000000000000       -0.0000000000000000     
   2266.0034841048559        0.0000000000000000       -0.0000000000000000     
   2266.0034841048559        0.0000000000000000       -0.0000000000000000     
   2266.0034841048559        0.0000000000000000       -0.0000000000000000     
   2266.0034841048559        0.0000000000000000       -0.0000000000000000     
   2266.0034841048559        0.0000000000000000       -0.0000000000000000     
   2266.0034841048559        0.0000000000000000       -0.0000000000000000     
   2266.0034841048559        0.0000000000000000       -0.0000000000000000     
   2266.0034841048559        0.0000000000000000       -0.0000000000000000     
   2266.0034841048559        0.0000000000000000       -0.0000000000000000     
   2266.0034841048559        0.0000000000000000       -0.0000000000000000     
   2266.0034841048559        0.0000000000000000       -0.0000000000000000     
   2266.0034841048559        0.0000000000000000       -0.0000000000000000     
   2266.0034841048559        0.0000000000000000       -0.0000000000000000     
   2266.0034841048559        0.0000000000000000       -0.0000000000000000     
   2266.0034841048559        0.0000000000000000       -0.0000000000000000     
   2266.0034841048559        0.0000000000000000       -0.0000000000000000     
   2266.0034841048559        0.0000000000000000       -0.0000000000000000     
   2266.0034841048559        0.0000000000000000       -0.0000000000000000     
   2266.0034841048559        0.0000000000000000       -0.0000000000000000     
   2266.0034841048559        0.0000000000000000       -0.0000000000000000     
   2266.0034841048559        0.0000000000000000       -0.0000000000000000     
   2266.0034841048559        0.0000000000000000       -0.0000000000000000     
   2266.0034841048559        0.0000000000000000       -0.0000000000000000     
   2266.0034841048559        0.0000000000000000       -0.0000000000000000     
   2266.0034841048559        0.0000000000000000       -0.0000000000000000     
   2266.0034841048559        0.0000000000000000       -0.0000000000000000     
   2266.0034841048559        0.0000000000000000       -0.0000000000000000     
   2266.0034841048559        0.0000000000000000       -0.0000000000000000     
   2266.0034841048559        0.0000000000000000       -0.0000000000000000     
   2266.0034841048559        0.0000000000000000       -0.0000000000000000     
   2266.0034841048559        0.0000000000000000       -0.0000000000000000     
   2266.0034841048559        0.0000000000000000       -0.0000000000000000     
   2266.0034841048559        0.0000000000000000       -0.0000000000000000     
   2266.0034841048559        0.0000000000000000       -0.0000000000000000     
   2266.0034841048559        0.0000000000000000       -0.0000000000000000     
   2266.0034841048559        0.0000000000000000       -0.0000000000000000     
   2266.0034841048559        0.0000000000000000       -0.0000000000000000     
   2266.0034841048559        0.0000000000000000        0.0000000000000000     
   2283.2587896875320        71.754298170545042        0.0000000000000000     
   2281.6643594709381        71.668809492498255        2.2522830741216491     
   2280.0726408696441        71.512776274647536        4.4992025237044455     
   2278.4853103727032        71.286503185848645        6.7385585385136988     
   2276.9039682019452        70.990360546515717        8.9681681235070467     
   2275.3301370675422        70.624783414926284        11.185866794215443     
   2273.7652612816341        70.190270659077143        13.389510224702391     
   2272.2107062244236        69.687384016104716        15.576975851423956     
   2270.6677581559347        69.116747140827826        17.746164436336660     
   2269.1376243654313        68.479044644522730        19.895001592579145     
   2267.6214336494327        67.775021124608713        22.021439275988222     
   2266.1202371081872        67.005480185506869        24.123457245602967     
   2264.6350092494913        66.171283450540344        26.199064496163945     
   2263.1666493878593        65.273349564377455        28.246300665432390     
   2261.7159833261517        64.312653185175037        30.263237418936985     
   2260.2837653059860        63.290223965269469        32.247979814509470     
   2258.8706802125389        62.207145518983985        34.198667648696762     
   2257.4773460186520        61.064554375876170        36.113476786839421     
   2256.1043164525358        59.863638917541465        37.990620478289820     
   2254.7520838728155        58.605638295918048        39.828350657909702     
   2253.4210823341487        57.291841330905960        41.624959234642063     
   2252.1116908262197        55.923585385020530        43.378779367597900     
   2250.8242366684904        54.502255212745496        45.088186729740649     
   2249.5589990428030        53.029281782237504        46.751600758891627     
   2248.3162126456286        51.506141067057079        48.367485895424679     
   2247.0960714415392        49.934352805663266        49.934352805668439     
   2245.8987324993627        48.315479226508955        51.450759589696908     
   2244.7243198923379        46.651123736707099        52.915312971864019     
   2243.5729286435858        44.942929572407763        54.326669472130718     
   2242.4446286982402        43.192578409224645        55.683536555946702     
   2241.3394689036454        41.401788931280116        56.984673760184947     
   2240.2574809792163        39.572315357693711        58.228893792390664     
   2239.1986834577292        37.705945925619005        59.415063600396515     
   2238.1630855801332        35.804501329235968        60.542105409179136     
   2237.1506911262791        33.869833114424608        61.608997721685270     
   2236.1615021643797        31.903822029179306        62.614776280245145     
   2235.1955227024755        29.908376330168259        63.558534985114271     
   2234.2527622257358        27.885430046194642        64.439426766645255     
   2233.3332391039426        25.836941199671056        65.256664407586854     
   2232.4369838542593        23.764889987575938        66.009521312043006     
   2231.5640422449760        21.671276923711662        66.697332217692150     
   2230.7144782267701        19.558120944429767        67.319493847975679     
   2229.8883766787849        17.427457480322428        67.875465501104173     
   2229.0858459577116        15.281336496699289        68.364769572905800     
   2228.3070202389454        13.121820505970748        68.786992010748108     
   2227.5520616398544        10.950982555340476        69.141782696002608     
   2226.8211621161786        8.7709041934673380        69.428855752786788     
   2226.1145451235757        6.5836734199887514        69.647989781009088     
   2225.4324670374067        4.3913826219997549        69.799028012056539     
   2224.7752183248999        2.1961265017541240        69.881878385798530     
   2224.1431244649120       -7.2281070540769566E-012   69.896513547929189     
   2223.5365466116323       -2.1949037805902338        69.842970767035737     
   2222.9558819996428       -4.3864956471641952        69.721351771151646     
   2222.4015640888720       -6.5726923792473375        69.531822503933569     
   2221.8740624490711       -8.7514187772507270        69.274612800981927     
   2221.3738823845374       -10.920609692509545        68.950015987206299     
   2220.9015643008611       -13.078212034305848        68.558388396511717     
   2220.4576828165455       -15.222186749498531        68.100148815450481     
   2220.0428456233458       -17.350510770521531        67.575777852838641     
   2219.6576921001974       -19.461178927690273        66.985817237678674     
   2219.3028916865255       -21.552205821966563        66.330869048051085     
   2218.9791420216507       -23.621627654571739        65.611594873939978     
   2218.6871668579029       -25.667504010105514        64.828714917234763     
   2218.4277137558424       -27.687919590119101        63.983007032402114     
   2218.2015515707812       -29.680985894405818        63.075305711543777     
   2218.0094677405150       -31.644842847605315        62.106501017749075     
   2217.8522653848568       -33.577660369067090        61.077537470810363     
   2217.7307602281444       -35.477639884281309        59.989412889495959     
   2217.6457773564962       -37.343015776557436        58.843177194667661     
   2217.5981478220492       -39.172056778009470        57.639931177585993     
   2217.5887051068885       -40.963067299288838        56.380825237767944     
   2217.6182814597555       -42.714388697887223        55.067058094747381     
   2217.6877041189573       -44.424400485209887        53.699875478038372     
   2217.7977914351977       -46.091521472991289        52.280568799517226     
   2217.9493489082661       -47.714210859986053        50.810473812320105     
   2218.1431651517287       -49.290969260217295        49.290969260201983     
   2218.3800077998862       -50.820339674395974        47.723475521119354     
   2218.6606193713756       -52.300908406439667        46.109453248586604     
   2218.9857131038452       -53.731305927311723        44.450402014114971     
   2219.3559687741604       -55.110207688670847        42.747858953776394     
   2219.7720285185696       -56.436334889064518        41.003397421643818     
   2220.2344926672331       -57.708455195615585        39.218625652547750     
   2220.7439156074483       -58.925383424337667        37.395185436258743     
   2221.3008016897797       -60.085982182369492        35.534750804857389     
   2221.9056011912353       -61.189162475542616        33.639026734694987     
   2222.5587063494368       -62.233884284784722        31.709747863975430     
   2223.2604474816258       -63.219157114917785        29.748677226611953     
   2224.0110892021439       -64.144040519429510        27.757605002628107     
   2224.8108267518660       -65.007644604783181        25.738347284988027     
   2225.6597824528544       -65.809130517780048        23.692744862357131     
   2226.5580023013040       -66.547710919404309        21.622662016914401     
   2227.5054527116381       -67.222650448460399        19.529985335965822     
   2228.5020174243627       -67.833266178157899        17.416622535745269     
   2229.5474945900905       -68.378928068612467        15.284501295440272     
   2230.6415940418624       -68.859059418010318        13.135568099146067     
   2231.7839347676349       -69.273137314931319        10.971787083136185     
   2232.9740425945561       -69.620693094045706        8.7951388855439987     
   2234.2113480963285       -69.901312797087471        6.6076194952791170     
   2235.4951847346560       -70.114637640671219        4.4112390967587851     
   2236.8247872454517       -70.260364492157549        2.2080209068189629     
   2238.1992902801076       -70.338246354387010       -1.4547574659698035E-011
   2239.6177273117623       -70.348092859699165       -2.2107778818659849     
   2241.0790298160628       -70.289770773228994       -4.4222575395479007     
   2242.5820267354893       -70.163204505037257       -6.6323755504646780     
   2244.1254442358104       -69.968376630180302       -8.8390615305891611     
   2245.7079057626820       -69.705328415365614       -11.040239428721220     
   2247.3279324058658       -69.374160350375590       -13.233828857196706     
   2248.9839435778622       -68.975032681972237       -15.417746463133213     
   2250.6742580130958       -68.508165947530216       -17.589907344172424     
   2252.3970950930316       -67.973841505181426       -19.748226512510470     
   2254.1505765017905       -67.372402056800311       -21.890620410793744     
   2255.9327282159684       -66.704252159716134       -24.015008483200589     
   2257.7414828314104       -65.969858722611221       -26.119314804728130     
   2259.5746822286965       -65.169751480656842       -28.201469771359701     
   2261.4300805780049       -64.304523444555102       -30.259411853401968     
   2263.3053476828786       -63.374831317798964       -32.291089413854110     
   2265.1980726611987       -62.381395876138761       -34.294462593205658     
   2267.1057679604000       -61.325002302955376       -36.267505261556614     
   2269.0258737025820       -60.206500473990936       -38.208207038416155     
   2270.9557623537917       -59.026805184682878       -40.114575379967555     
   2272.8927437102548       -57.786896313188208       -41.984637732989370     
   2274.8340701928546       -56.487818912077174       -43.816443754001774     
   2276.7769424395337       -55.130683221618838       -45.608067591564186     
   2278.7185151837393       -53.716664597583673       -47.357610228991575     
   2280.6559034053826       -52.247003346546677       -49.063201884088265     
   2282.5861887391461       -50.723004461795000       -50.723004461821247     
   2284.5064261232937       -49.146037253125868       -52.335214055179335     
   2286.4136506705195       -47.517534864066256       -53.898063488792943     
   2288.3048847407085       -45.838993670354753       -55.409824899229207     
   2290.1771451939217       -44.111972553899562       -56.868812345234794     
   2292.0274508003108       -42.338092046862066       -58.273384440578290     
   2293.8528297822354       -40.519033341014079       -59.621947001556528     
   2295.6503274623919       -38.656537158075885       -60.912955700673471     
   2297.4170139904672       -36.752402477356064       -62.144918717492466     
   2299.1499921196037       -34.808485117687020       -63.316399377197747     
   2300.8464050028774       -32.826696171367544       -64.426018766996179     
   2302.5034439790320       -30.809000288593339       -65.472458320140120     
   2304.1183563159075       -28.757413811659820       -66.454462357072430     
   2305.6884528793844       -26.674002759066774       -67.370840572980768     
   2307.2111156951742       -24.560880660520429       -68.220470460910889     
   2308.6838053705724       -22.420206244723982       -69.002299659528745     
   2310.1040683431684       -20.254180982748657       -69.715348214641168     
   2311.4695439236925       -18.065046490692922       -70.358710743687695     
   2312.7779711005246       -15.855081796243361       -70.931558492604992     
   2314.0271950739493       -13.626600474653827       -71.433141274734780     
   2315.2151734890735       -11.381947660536637       -71.862789281804808     
   2316.3399823373170       -9.1234969427172814       -72.219914757449246     
   2317.3998214976396       -6.8536471502190208       -72.504013524256138     
   2318.3930198901244       -4.5748190382208334       -72.714666355925516     
   2319.3180402161961       -2.2894518835555737       -72.851540186793116     
   2320.1734832616244        2.2652951269566082E-011  -72.914389151713337     
   2320.9580917405106        2.2910708159707380       -72.903055450097639     
   2321.6707536606887        4.5812868971351959       -72.817470028762159     
   2322.3105051933458        6.8681703641715544       -72.657653079146087     
   2322.8765330322176        9.1492428180377559       -72.423714345411270     
   2323.3681762303327        11.422029054112238       -72.115853240913935     
   2323.7849275050630        13.684060785303334       -71.734358771545971     
   2324.1264340050488        15.932880361416277       -71.279609265463009     
   2324.3924975354603        18.166044472045872       -70.752071909742682     
   2324.5830742409794        20.381127820349541       -70.152302095538175     
   2324.6982737488192        22.575726755243529       -69.480942574301622     
   2324.7383577770042        24.747462849835472       -68.738722428637274     
   2324.7037382160202        26.893986414272934       -67.926455862299647     
   2324.5949746947622        29.012979931631918       -67.045040814765883     
   2324.4127716444086        31.102161405995805       -66.095457406677994     
   2324.1579748765198        33.159287612477563       -65.078766223260274     
   2323.8315676941179        35.182157239602745       -63.996106443566021     
   2323.4346665568619        37.168613915202513       -62.848693824083618     
   2322.9685163236459        39.116549107744852       -61.637818545840254     
   2322.4344850979214        41.023904895861655       -60.364842934663045     
   2321.8340587029006        42.888676599690115       -59.031199064704936     
   2321.1688348153871        44.708915268541539       -57.638386255698386     
   2320.4405167884215        46.482730020318748       -56.187968474675714     
   2319.6509071940882        48.208290229027909       -54.681571653077569     
   2318.8019011188285        49.883827557651159       -53.120880930273422     
   2317.8954792443560        51.507637834566303       -51.507637834529000     
   2316.9337007477693        53.078082772598414       -49.843637412388105     