 VARIABLES = "x_1", "x_2", "x_3"
 ZONE F = POINT , I =         201  , J =         101
   741.01468840427697        0.0000000000000000        0.0000000000000000     
   740.94031290483815        0.0000000000000000        0.0000000000000000     
   740.86521296929402        0.0000000000000000        0.0000000000000000     
   740.78968551675166        0.0000000000000000        0.0000000000000000     
   740.71402888400348        0.0000000000000000        0.0000000000000000     
   740.63854164418763        0.0000000000000000        0.0000000000000000     
   740.56352142882849        0.0000000000000000        0.0000000000000000     
   740.48926375789836        0.0000000000000000        0.0000000000000000     
   740.41606088243225        0.0000000000000000        0.0000000000000000     
   740.34420064411552        0.0000000000000000        0.0000000000000000     
   740.27396535613639        0.0000000000000000        0.0000000000000000     
   740.20563070944513        0.0000000000000000        0.0000000000000000     
   740.13946470841233        0.0000000000000000        0.0000000000000000     
   740.07572663970836        0.0000000000000000        0.0000000000000000     
   740.01466607805378        0.0000000000000000        0.0000000000000000     
   739.95652193230490        0.0000000000000000        0.0000000000000000     
   739.90152153515078        0.0000000000000000        0.0000000000000000     
   739.84987977950470        0.0000000000000000        0.0000000000000000     
   739.80179830447025        0.0000000000000000        0.0000000000000000     
   739.75746473356742        0.0000000000000000        0.0000000000000000     
   739.71705196768983        0.0000000000000000        0.0000000000000000     
   739.68071753506536        0.0000000000000000        0.0000000000000000     
   739.64860300028852        0.0000000000000000        0.0000000000000000     
   739.62083343427082        0.0000000000000000        0.0000000000000000     
   739.59751694676618        0.0000000000000000        0.0000000000000000     
   739.57874428290654        0.0000000000000000        0.0000000000000000     
   739.56458848498482        0.0000000000000000        0.0000000000000000     
   739.55510462051154        0.0000000000000000        0.0000000000000000     
   739.55032957736375        0.0000000000000000        0.0000000000000000     
   739.55028192664747        0.0000000000000000        0.0000000000000000     
   739.55496185368077        0.0000000000000000        0.0000000000000000     
   739.56435115730437        0.0000000000000000        0.0000000000000000     
   739.57841331752388        0.0000000000000000        0.0000000000000000     
   739.59709363127990        0.0000000000000000        0.0000000000000000     
   739.62031941593784        0.0000000000000000        0.0000000000000000     
   739.64800027988883        0.0000000000000000        0.0000000000000000     
   739.68002845944022        0.0000000000000000        0.0000000000000000     
   739.71627922097787        0.0000000000000000        0.0000000000000000     
   739.75661132716436        0.0000000000000000        0.0000000000000000     
   739.80086756574190        0.0000000000000000        0.0000000000000000     
   739.84887533929304        0.0000000000000000        0.0000000000000000     
   739.90044731410887        0.0000000000000000        0.0000000000000000     
   739.95538212610290        0.0000000000000000        0.0000000000000000     
   740.01346514150919        0.0000000000000000        0.0000000000000000     
   740.07446926988791        0.0000000000000000        0.0000000000000000     
   740.13815582676216        0.0000000000000000        0.0000000000000000     
   740.20427544301128        0.0000000000000000        0.0000000000000000     
   740.27256901793783        0.0000000000000000        0.0000000000000000     
   740.34276871273778        0.0000000000000000        0.0000000000000000     
   740.41459898091477        0.0000000000000000        0.0000000000000000     
   740.48777763198882       -0.0000000000000000        0.0000000000000000     
   740.56201692468323       -0.0000000000000000        0.0000000000000000     
   740.63702468560234       -0.0000000000000000        0.0000000000000000     
   740.71250544925579       -0.0000000000000000        0.0000000000000000     
   740.78816161514555       -0.0000000000000000        0.0000000000000000     
   740.86369461749644       -0.0000000000000000        0.0000000000000000     
   740.93880610309782       -0.0000000000000000        0.0000000000000000     
   741.01319911262340       -0.0000000000000000        0.0000000000000000     
   741.08657926071317       -0.0000000000000000        0.0000000000000000     
   741.15865591004240       -0.0000000000000000        0.0000000000000000     
   741.22914333455583       -0.0000000000000000        0.0000000000000000     
   741.29776186702611       -0.0000000000000000        0.0000000000000000     
   741.36423902610011       -0.0000000000000000        0.0000000000000000     
   741.42831061801940       -0.0000000000000000        0.0000000000000000     
   741.48972180825456       -0.0000000000000000        0.0000000000000000     
   741.54822815836667       -0.0000000000000000        0.0000000000000000     
   741.60359662351243       -0.0000000000000000        0.0000000000000000     
   741.65560650613497       -0.0000000000000000        0.0000000000000000     
   741.70405036153943       -0.0000000000000000        0.0000000000000000     
   741.74873485122725       -0.0000000000000000        0.0000000000000000     
   741.78948154006719       -0.0000000000000000        0.0000000000000000     
   741.82612763361431       -0.0000000000000000        0.0000000000000000     
   741.85852665213554       -0.0000000000000000        0.0000000000000000     
   741.88654903817508       -0.0000000000000000        0.0000000000000000     
   741.91008269478971       -0.0000000000000000        0.0000000000000000     
   741.92903345189723       -0.0000000000000000        0.0000000000000000     
   741.94332545851091       -0.0000000000000000        0.0000000000000000     
   741.95290149898290       -0.0000000000000000        0.0000000000000000     
   741.95772323173230       -0.0000000000000000        0.0000000000000000     
   741.95777134931370       -0.0000000000000000        0.0000000000000000     
   741.95304565904678       -0.0000000000000000        0.0000000000000000     
   741.94356508382009       -0.0000000000000000        0.0000000000000000     
   741.92936758306780       -0.0000000000000000        0.0000000000000000     
   741.91050999429604       -0.0000000000000000        0.0000000000000000     
   741.88706779592860       -0.0000000000000000        0.0000000000000000     
   741.85913479261171       -0.0000000000000000        0.0000000000000000     
   741.82682272449210       -0.0000000000000000        0.0000000000000000     
   741.79026080234269       -0.0000000000000000        0.0000000000000000     
   741.74959517074979       -0.0000000000000000        0.0000000000000000     
   741.70498830191775       -0.0000000000000000        0.0000000000000000     
   741.65661832295189       -0.0000000000000000        0.0000000000000000     
   741.60467827978198       -0.0000000000000000        0.0000000000000000     
   741.54937534116016       -0.0000000000000000        0.0000000000000000     
   741.49092994642137       -0.0000000000000000        0.0000000000000000     
   741.42957490091976       -0.0000000000000000        0.0000000000000000     
   741.36555442326562       -0.0000000000000000        0.0000000000000000     
   741.29912314865794       -0.0000000000000000        0.0000000000000000     
   741.23054509277313       -0.0000000000000000        0.0000000000000000     
   741.16009258078384       -0.0000000000000000        0.0000000000000000     
   741.08804514619817       -0.0000000000000000        0.0000000000000000     
   741.01468840427651       -0.0000000000000000       -0.0000000000000000     
   740.94031290483770       -0.0000000000000000       -0.0000000000000000     
   740.86521296929357       -0.0000000000000000       -0.0000000000000000     
   740.78968551675098       -0.0000000000000000       -0.0000000000000000     
   740.71402888400291       -0.0000000000000000       -0.0000000000000000     
   740.63854164418706       -0.0000000000000000       -0.0000000000000000     
   740.56352142882804       -0.0000000000000000       -0.0000000000000000     
   740.48926375789790       -0.0000000000000000       -0.0000000000000000     
   740.41606088243145       -0.0000000000000000       -0.0000000000000000     
   740.34420064411506       -0.0000000000000000       -0.0000000000000000     
   740.27396535613605       -0.0000000000000000       -0.0000000000000000     
   740.20563070944468       -0.0000000000000000       -0.0000000000000000     
   740.13946470841188       -0.0000000000000000       -0.0000000000000000     
   740.07572663970780       -0.0000000000000000       -0.0000000000000000     
   740.01466607805344       -0.0000000000000000       -0.0000000000000000     
   739.95652193230455       -0.0000000000000000       -0.0000000000000000     
   739.90152153515055       -0.0000000000000000       -0.0000000000000000     
   739.84987977950414       -0.0000000000000000       -0.0000000000000000     
   739.80179830447003       -0.0000000000000000       -0.0000000000000000     
   739.75746473356730       -0.0000000000000000       -0.0000000000000000     
   739.71705196768937       -0.0000000000000000       -0.0000000000000000     
   739.68071753506490       -0.0000000000000000       -0.0000000000000000     
   739.64860300028852       -0.0000000000000000       -0.0000000000000000     
   739.62083343427082       -0.0000000000000000       -0.0000000000000000     
   739.59751694676584       -0.0000000000000000       -0.0000000000000000     
   739.57874428290631       -0.0000000000000000       -0.0000000000000000     
   739.56458848498482       -0.0000000000000000       -0.0000000000000000     
   739.55510462051143       -0.0000000000000000       -0.0000000000000000     
   739.55032957736364       -0.0000000000000000       -0.0000000000000000     
   739.55028192664759       -0.0000000000000000       -0.0000000000000000     
   739.55496185368088       -0.0000000000000000       -0.0000000000000000     
   739.56435115730426       -0.0000000000000000       -0.0000000000000000     
   739.57841331752411       -0.0000000000000000       -0.0000000000000000     
   739.59709363128002       -0.0000000000000000       -0.0000000000000000     
   739.62031941593807       -0.0000000000000000       -0.0000000000000000     
   739.64800027988906       -0.0000000000000000       -0.0000000000000000     
   739.68002845944045       -0.0000000000000000       -0.0000000000000000     
   739.71627922097809       -0.0000000000000000       -0.0000000000000000     
   739.75661132716471       -0.0000000000000000       -0.0000000000000000     
   739.80086756574212       -0.0000000000000000       -0.0000000000000000     
   739.84887533929327       -0.0000000000000000       -0.0000000000000000     
   739.90044731410921       -0.0000000000000000       -0.0000000000000000     
   739.95538212610313       -0.0000000000000000       -0.0000000000000000     
   740.01346514150953       -0.0000000000000000       -0.0000000000000000     
   740.07446926988814       -0.0000000000000000       -0.0000000000000000     
   740.13815582676250       -0.0000000000000000       -0.0000000000000000     
   740.20427544301174       -0.0000000000000000       -0.0000000000000000     
   740.27256901793839       -0.0000000000000000       -0.0000000000000000     
   740.34276871273823       -0.0000000000000000       -0.0000000000000000     
   740.41459898091523       -0.0000000000000000       -0.0000000000000000     
   740.48777763198916        0.0000000000000000       -0.0000000000000000     
   740.56201692468358        0.0000000000000000       -0.0000000000000000     
   740.63702468560268        0.0000000000000000       -0.0000000000000000     
   740.71250544925601        0.0000000000000000       -0.0000000000000000     
   740.78816161514601        0.0000000000000000       -0.0000000000000000     
   740.86369461749689        0.0000000000000000       -0.0000000000000000     
   740.93880610309850        0.0000000000000000       -0.0000000000000000     
   741.01319911262374        0.0000000000000000       -0.0000000000000000     
   741.08657926071362        0.0000000000000000       -0.0000000000000000     
   741.15865591004285        0.0000000000000000       -0.0000000000000000     
   741.22914333455651        0.0000000000000000       -0.0000000000000000     
   741.29776186702645        0.0000000000000000       -0.0000000000000000     
   741.36423902610056        0.0000000000000000       -0.0000000000000000     
   741.42831061801974        0.0000000000000000       -0.0000000000000000     
   741.48972180825479        0.0000000000000000       -0.0000000000000000     
   741.54822815836701        0.0000000000000000       -0.0000000000000000     
   741.60359662351277        0.0000000000000000       -0.0000000000000000     
   741.65560650613520        0.0000000000000000       -0.0000000000000000     
   741.70405036153977        0.0000000000000000       -0.0000000000000000     
   741.74873485122771        0.0000000000000000       -0.0000000000000000     
   741.78948154006741        0.0000000000000000       -0.0000000000000000     
   741.82612763361442        0.0000000000000000       -0.0000000000000000     
   741.85852665213565        0.0000000000000000       -0.0000000000000000     
   741.88654903817496        0.0000000000000000       -0.0000000000000000     
   741.91008269478993        0.0000000000000000       -0.0000000000000000     
   741.92903345189734        0.0000000000000000       -0.0000000000000000     
   741.94332545851091        0.0000000000000000       -0.0000000000000000     
   741.95290149898290        0.0000000000000000       -0.0000000000000000     
   741.95772323173242        0.0000000000000000       -0.0000000000000000     
   741.95777134931382        0.0000000000000000       -0.0000000000000000     
   741.95304565904678        0.0000000000000000       -0.0000000000000000     
   741.94356508381998        0.0000000000000000       -0.0000000000000000     
   741.92936758306757        0.0000000000000000       -0.0000000000000000     
   741.91050999429592        0.0000000000000000       -0.0000000000000000     
   741.88706779592849        0.0000000000000000       -0.0000000000000000     
   741.85913479261137        0.0000000000000000       -0.0000000000000000     
   741.82682272449176        0.0000000000000000       -0.0000000000000000     
   741.79026080234246        0.0000000000000000       -0.0000000000000000     
   741.74959517074967        0.0000000000000000       -0.0000000000000000     
   741.70498830191764        0.0000000000000000       -0.0000000000000000     
   741.65661832295166        0.0000000000000000       -0.0000000000000000     
   741.60467827978152        0.0000000000000000       -0.0000000000000000     
   741.54937534115982        0.0000000000000000       -0.0000000000000000     
   741.49092994642092        0.0000000000000000       -0.0000000000000000     
   741.42957490091942        0.0000000000000000       -0.0000000000000000     
   741.36555442326505        0.0000000000000000       -0.0000000000000000     
   741.29912314865749        0.0000000000000000       -0.0000000000000000     
   741.23054509277267        0.0000000000000000       -0.0000000000000000     
   741.16009258078338        0.0000000000000000       -0.0000000000000000     
   741.08804514619783        0.0000000000000000       -0.0000000000000000     
   741.01468840427594        0.0000000000000000        0.0000000000000000     
   739.38471811472766        23.236100859863157        0.0000000000000000     
   739.12264246893403        23.216403251782769       0.72960486516029621     
   738.85547810918695        23.173650504909880        1.4579625105688738     
   738.58417901408257        23.107931918899407        2.1843426873322107     
   738.30976180621462        23.019361781439287        2.9080216660755163     
   738.03329867264677        22.908078710255321        3.6282832254344570     
   737.75590972780230        22.774244934562809        4.3444195690926639     
   737.47875489669775        22.618045525188599        5.0557321662533541     
   737.20302540109208        22.439687583127888        5.7615325116331837     
   736.92993493460733        22.239399396669310        6.4611428023204613     
   736.66071061514822        22.017429577413996        7.1538965301232649     
   736.39658380406365        21.774046185530118        7.8391389893215617     
   736.13878088147089        21.509535854427202        8.5162277010071747     
   735.88851406607239        21.224202924710486        9.1845327564237387     
   735.64697236568657        20.918368596794711        9.8434370828843782     
   735.41531274171325        20.592370110931952        10.492336636929048     
   735.19465156691774        20.246559962653020        11.130640530369249     
   734.98605645137434        19.881305160753943        11.757771095740623     
   734.79053850624939        19.496986533995390        12.373163898432887     
   734.60904510944692        19.093998091642280        12.976267703381637     
   734.44245323105179        18.672746441872185        13.566544404682105     
   734.29156337014456        18.233650270944374        14.143468926817045     
   734.15709414792639        17.777139884863963        14.706529106377687     
   734.03967759537068        17.303656814118096        15.255225563199964     
   733.93985516676321        16.813653480918536        15.789071569739932     
   733.85807450367076        16.307592927276573        16.307592927278261     
   733.79468696705987        15.785948601175267        16.810327857179914     
   733.74994594856980        15.249204197106325        17.296826914950113     
   733.72400596531577        14.697853546316615        17.766652934230365     
   733.71692253612935        14.132400551274154        18.219381007179891     
   733.72865283082160        13.553359158125863        18.654598506899280     
   733.75905707790878        12.961253360287460        19.071905156687055     
   733.80790071030594        12.356617225787646        19.470913149989503     
   733.87485722274107        11.739994940589296        19.851247323922827     
   733.95951170914225        11.111940859834558        20.212545388228992     
   734.06136504297331        10.473019558810869        20.554458210486803     
   734.17983865848691        9.8238058754124769        20.876650157352834     
   734.31427988615690        9.1648849359768096        21.178799490567688     
   734.46396779114320        8.4968521566045077        21.460598815446481     
   734.62811945961016        7.8203132124230965        21.721755578593729     
   734.80589667406434        7.1358839677215888        21.961992610655749     
   734.99641291566093        6.4441903604595643        22.181048709062992     
   735.19874062869360        5.7458682353313222        22.378679254933175     
   735.41191868027249        5.0415631203329161        22.554656857616230     
   735.63495994655148        4.3319299426254707        22.708772019775036     
   735.86685895585106        3.6176326803990944        22.840833815421494     
   736.10659951865125        2.8993439484029295        22.950670572973682     
   736.35316227476176        2.1777445158033841        23.038130555172927     
   736.60553208902252        1.4535227560469688        23.103082627603854     
   736.86270522868006       0.72737402942008944        23.145416907597532     
   737.12369625811027       -2.3955333314857369E-012   23.165045385467263     
   737.38754458984749      -0.72789211036210411        23.161902510325735     
   737.65332063485937       -1.4555903274024333        23.135945733154866     
   737.92013149972081       -2.1823787848123817        23.087156000339331     
   738.18712618364646       -2.9075386343398542        23.015538191518836     
   738.45350023427932       -3.6303489998132901        22.921121496353301     
   738.71849982754566       -4.3500879686445195        22.803959725611918     
   738.98142524373486       -5.0660336139358471        22.664131552877642     
   739.24163371914187       -5.7774650399868950        22.501740684084808     
   739.49854165998988       -6.4836634437961953        22.316915953061237     
   739.75162621287336       -7.1839131850805957        22.109811342209436     
   740.00042619342719       -7.8775028573905281        21.880605928414059     
   740.24454238233864       -8.5637263530781844        21.629503755189397     
   740.48363720492205       -9.2418839151705985        21.356733632960566     
   740.71743381729448       -9.9112831696033830        21.062548870192337     
   740.94571462852446       -10.571240131770866        20.747226938824259     
   741.16831929394050       -11.221080181932541        20.411069078128090     
   741.38514221997582       -11.860139004669422        20.054399841663610     
   741.59612962542360       -12.487763488291433        19.677566592463766     
   741.80127620774988       -13.103312580842580        19.280938951925577     
   742.00062146609707       -13.706158100117507        18.864908208115526     
   742.19424573480387       -14.295685495875077        18.429886689319016     
   742.38226598265658       -14.871294563196123        17.976307108674039     
   742.56483143369303       -15.432400106668730        17.504621885635707     
   742.74211906519758       -15.978432555781268        17.015302449826255     
   742.91432903763075       -16.508838532549792        16.508838532544665     
   743.08168010965244       -17.023081372990781        15.985737450850760     
   743.24440508917473       -17.520641604564815        15.446523388711395     
   743.40274636862864       -18.001017382155265        14.891736679215049     
   743.55695158934498       -18.463724885502412        14.321933091336247     
   743.70726947631192       -18.908298681287654        13.737683124178384     
   743.85394588054533       -19.334292053250756        13.139571311052521     
   743.99722006207037       -19.741277303829524        12.528195535175829     
   744.13732124208912       -20.128846030836982        11.904166358206114     
   744.27446544837460       -20.496609382640710        11.268106362280074     
   744.40885267338967       -20.844198295188413        10.620649505702268     
   744.54066436012249       -21.171263714039899        9.9624404919476088     
   744.67006122622399       -21.477476804325153        9.2941341511996658     
   744.79718143277660       -21.762529151259915        8.6163948332561127     
   744.92213910000567       -22.026132953523238        7.9298958102962454     
   745.04502316842866       -22.268021211442953        7.2353186877253695     
   745.16589660044838       -22.487947911555661        6.5333528210907375     
   745.28479591417988       -22.685688208714637        5.8246947369020186     
   745.40173103844882       -22.861038606521486        5.1100475550870685     
   745.51668547534962       -23.013817136461860        4.3901204107679401     
   745.62961675459337       -23.143863535740699        3.6656278730510699     
   745.74045716202943       -23.251039423443032        2.9372893585848230     
   745.84911472324814       -23.335228474299512        2.2058285377438347     
   745.95547442201814       -23.396336589015228        1.4719727314475217     
   746.05939963248068       -23.434292059830582       0.73645229680502355     
   746.16073374348423       -23.449045729726382       -4.8498044965915158E-012
   746.25930195319518       -23.440571143465398      -0.73664962496754416     
   746.35491321211350       -23.408864688479301       -1.4727609326663433     
   746.44736229283887       -23.353945723464705       -2.2075978387228052     
   746.53643196535347       -23.275856692445281       -2.9404245087623835     
   746.62189525716167       -23.174663221986684       -3.6705060641291425     
   746.70351777833662       -23.050454199217626       -4.3971093042778087     
   746.78106009234511       -22.903341828311309       -5.1195034454789159     
   746.85428011439103       -22.733461663114738       -5.8369608751860067     
   746.92293551995886       -22.540972613677390       -6.5487579211374181     
   746.98678614717039       -22.326056924522540       -7.2541756340000569     
   747.04559637749787       -22.088920122621509       -7.9525005821121129     
   747.09913748028475       -21.829790933171843       -8.6430256566471293     
   747.14718990735707       -21.548921161440688       -9.3250508853046483     
   747.18954552480182       -21.246585539114015       -9.9978842524339235     
   747.22600976968545       -20.923081533787357       -10.660842523317855     
   747.25640372009229       -20.578729120442329       -11.313252070184433     
   747.28056606740813       -20.213870513975095       -11.954449697373855     
   747.29835498018417       -19.828869862073933       -12.583783462970475     
   747.30964984928949       -19.424112897984095       -13.200613494110950     
   747.31435290432580       -19.000006552946601       -13.804312793103458     
   747.31239069148592       -18.556978528351884       -14.394268031437603     
   747.30371540321380       -18.095476827909568       -14.969880328732287     
   747.28830605013695       -17.615969250399022       -15.530566013657980     
   747.26616946588683       -17.118942843832230       -16.075757363883792     
   747.23734113554167       -16.604903322127903       -16.604903322136497     
   747.20188583860636       -16.074374445663381       -17.117470185521228     
   747.15989809767666       -15.527897367336303       -17.612942265341541     
   747.11150242424935       -14.966029946029225       -18.090822514771020     
   747.05685335356065       -14.389346029625331       -18.550633121870515     
   746.99613526089104       -13.798434709969461       -18.991916065614610     
   746.92956195246381       -13.193899552402446       -19.414233632788623     
   746.85737602492952       -12.576357802716673       -19.817168893842805     
   746.77984798846001       -11.946439574580667       -20.200326136044186     
   746.69727514969134       -11.304787020660543       -20.563331252545670     
   746.60998025216395       -10.652053490818680       -20.905832086298005     
   746.51830987349979       -9.9889026808953236       -21.227498728058041     
   746.42263258034336       -9.3160077756693376       -21.528023768096951     
   746.32333684403932       -8.6340505896505988       -21.807122501578089     
   746.22082872215128       -7.9437207093712976       -22.064533087955962     
   746.11552931317965       -7.2457146408179653       -22.300016665137111     
   746.00787199424371       -6.5407349655738685       -22.513357419539545     
   745.89829945396650       -5.8294895091248184       -22.704362613580120     
   745.78726053538480       -5.1126905246153571       -22.872862572507611     
   745.67520690629783       -4.3910538951303177       -23.018710632872423     
   745.56258957709383       -3.6652983573151627       -23.141783055279493     
   745.44985528868472       -2.9361447488432395       -23.241978904399783     
   745.33744279570510       -2.2043152818865095       -23.319219899512422     
   745.22577907257596       -1.4705328443560224       -23.373450239107942     
   745.11527547232754      -0.73552033025066876       -23.404636403296248     
   745.00632387021665        7.2738491633936019E-012  -23.412766937925998     
   744.89929282610251       0.73530712885527150       -23.397852224430157     
   744.79452380124189        1.4696818606034596       -23.359924239459751     
   744.69232746657894        2.2024073708033587       -23.299036308352651     
   744.59298014074261        2.9327697271198581       -23.215262856402401     
   744.49672039673578        3.6600583833682330       -23.108699161742347     
   744.40374587674967        4.3835666488815992       -22.979461113442113     
   744.31421035457436        5.1025921358526656       -22.827684978127337     
   744.22822108472087        5.8164371877432348       -22.653527178080534     
   744.14583647658662        6.5244092922608932       -22.457164083364887     
   744.06706413075767        7.2258214827612646       -22.238791820036568     
   743.99185927285316        7.9199927322320534       -21.998626095981518     
   743.92012361815409        8.6062483442489111       -21.736902045334702     
   743.85170469760726        9.2839203454510066       -21.453874091822293     
   743.78639567267317        9.9523478841624193       -21.149815830718726     
   743.72393566287019        10.610877639777952       -20.825019928440309     
   743.66401060578517        11.258864247432506       -20.479798038117295     
   743.60625466475835        11.895670742281984       -20.114480728806498     
   743.55025219446759        12.520669027435368       -19.729417425341900     
   743.49554026921032        13.133240369196178       -19.324976355180585     
   743.44161177289595        13.732775922794794       -18.901544498002622     
   743.38791904361881        14.318677291228573       -18.459527533275626     
   743.33387805926952        14.890357119176279       -17.999349780514518     
   743.27887314400130        15.447239723228193       -17.521454126563434     
   743.22226216858269        15.988761758879145       -17.026301933915196     
   743.16338221081617        16.514372923883986       -16.514372923872024     
   743.10155563538808        17.023536696683248       -15.986165028251722     