 VARIABLES = "x_1", "x_2", "x_3"
 ZONE F = POINT , I =         201  , J =         101
   2389.3296799317809        0.0000000000000000        0.0000000000000000     
   2389.3296799317809        0.0000000000000000        0.0000000000000000     
   2389.3296799317809        0.0000000000000000        0.0000000000000000     
   2389.3296799317809        0.0000000000000000        0.0000000000000000     
   2389.3296799317809        0.0000000000000000        0.0000000000000000     
   2389.3296799317809        0.0000000000000000        0.0000000000000000     
   2389.3296799317809        0.0000000000000000        0.0000000000000000     
   2389.3296799317809        0.0000000000000000        0.0000000000000000     
   2389.3296799317809        0.0000000000000000        0.0000000000000000     
   2389.3296799317809        0.0000000000000000        0.0000000000000000     
   2389.3296799317809        0.0000000000000000        0.0000000000000000     
   2389.3296799317809        0.0000000000000000        0.0000000000000000     
   2389.3296799317809        0.0000000000000000        0.0000000000000000     
   2389.3296799317809        0.0000000000000000        0.0000000000000000     
   2389.3296799317809        0.0000000000000000        0.0000000000000000     
   2389.3296799317809        0.0000000000000000        0.0000000000000000     
   2389.3296799317809        0.0000000000000000        0.0000000000000000     
   2389.3296799317809        0.0000000000000000        0.0000000000000000     
   2389.3296799317809        0.0000000000000000        0.0000000000000000     
   2389.3296799317809        0.0000000000000000        0.0000000000000000     
   2389.3296799317809        0.0000000000000000        0.0000000000000000     
   2389.3296799317809        0.0000000000000000        0.0000000000000000     
   2389.3296799317809        0.0000000000000000        0.0000000000000000     
   2389.3296799317809        0.0000000000000000        0.0000000000000000     
   2389.3296799317809        0.0000000000000000        0.0000000000000000     
   2389.3296799317809        0.0000000000000000        0.0000000000000000     
   2389.3296799317809        0.0000000000000000        0.0000000000000000     
   2389.3296799317809        0.0000000000000000        0.0000000000000000     
   2389.3296799317809        0.0000000000000000        0.0000000000000000     
   2389.3296799317809        0.0000000000000000        0.0000000000000000     
   2389.3296799317809        0.0000000000000000        0.0000000000000000     
   2389.3296799317809        0.0000000000000000        0.0000000000000000     
   2389.3296799317809        0.0000000000000000        0.0000000000000000     
   2389.3296799317809        0.0000000000000000        0.0000000000000000     
   2389.3296799317809        0.0000000000000000        0.0000000000000000     
   2389.3296799317809        0.0000000000000000        0.0000000000000000     
   2389.3296799317809        0.0000000000000000        0.0000000000000000     
   2389.3296799317809        0.0000000000000000        0.0000000000000000     
   2389.3296799317809        0.0000000000000000        0.0000000000000000     
   2389.3296799317809        0.0000000000000000        0.0000000000000000     
   2389.3296799317809        0.0000000000000000        0.0000000000000000     
   2389.3296799317809        0.0000000000000000        0.0000000000000000     
   2389.3296799317809        0.0000000000000000        0.0000000000000000     
   2389.3296799317809        0.0000000000000000        0.0000000000000000     
   2389.3296799317809        0.0000000000000000        0.0000000000000000     
   2389.3296799317809        0.0000000000000000        0.0000000000000000     
   2389.3296799317809        0.0000000000000000        0.0000000000000000     
   2389.3296799317809        0.0000000000000000        0.0000000000000000     
   2389.3296799317809        0.0000000000000000        0.0000000000000000     
   2389.3296799317809        0.0000000000000000        0.0000000000000000     
   2389.3296799317809       -0.0000000000000000        0.0000000000000000     
   2389.3296799317809       -0.0000000000000000        0.0000000000000000     
   2389.3296799317809       -0.0000000000000000        0.0000000000000000     
   2389.3296799317809       -0.0000000000000000        0.0000000000000000     
   2389.3296799317809       -0.0000000000000000        0.0000000000000000     
   2389.3296799317809       -0.0000000000000000        0.0000000000000000     
   2389.3296799317809       -0.0000000000000000        0.0000000000000000     
   2389.3296799317809       -0.0000000000000000        0.0000000000000000     
   2389.3296799317809       -0.0000000000000000        0.0000000000000000     
   2389.3296799317809       -0.0000000000000000        0.0000000000000000     
   2389.3296799317809       -0.0000000000000000        0.0000000000000000     
   2389.3296799317809       -0.0000000000000000        0.0000000000000000     
   2389.3296799317809       -0.0000000000000000        0.0000000000000000     
   2389.3296799317809       -0.0000000000000000        0.0000000000000000     
   2389.3296799317809       -0.0000000000000000        0.0000000000000000     
   2389.3296799317809       -0.0000000000000000        0.0000000000000000     
   2389.3296799317809       -0.0000000000000000        0.0000000000000000     
   2389.3296799317809       -0.0000000000000000        0.0000000000000000     
   2389.3296799317809       -0.0000000000000000        0.0000000000000000     
   2389.3296799317809       -0.0000000000000000        0.0000000000000000     
   2389.3296799317809       -0.0000000000000000        0.0000000000000000     
   2389.3296799317809       -0.0000000000000000        0.0000000000000000     
   2389.3296799317809       -0.0000000000000000        0.0000000000000000     
   2389.3296799317809       -0.0000000000000000        0.0000000000000000     
   2389.3296799317809       -0.0000000000000000        0.0000000000000000     
   2389.3296799317809       -0.0000000000000000        0.0000000000000000     
   2389.3296799317809       -0.0000000000000000        0.0000000000000000     
   2389.3296799317809       -0.0000000000000000        0.0000000000000000     
   2389.3296799317809       -0.0000000000000000        0.0000000000000000     
   2389.3296799317809       -0.0000000000000000        0.0000000000000000     
   2389.3296799317809       -0.0000000000000000        0.0000000000000000     
   2389.3296799317809       -0.0000000000000000        0.0000000000000000     
   2389.3296799317809       -0.0000000000000000        0.0000000000000000     
   2389.3296799317809       -0.0000000000000000        0.0000000000000000     
   2389.3296799317809       -0.0000000000000000        0.0000000000000000     
   2389.3296799317809       -0.0000000000000000        0.0000000000000000     
   2389.3296799317809       -0.0000000000000000        0.0000000000000000     
   2389.3296799317809       -0.0000000000000000        0.0000000000000000     
   2389.3296799317809       -0.0000000000000000        0.0000000000000000     
   2389.3296799317809       -0.0000000000000000        0.0000000000000000     
   2389.3296799317809       -0.0000000000000000        0.0000000000000000     
   2389.3296799317809       -0.0000000000000000        0.0000000000000000     
   2389.3296799317809       -0.0000000000000000        0.0000000000000000     
   2389.3296799317809       -0.0000000000000000        0.0000000000000000     
   2389.3296799317809       -0.0000000000000000        0.0000000000000000     
   2389.3296799317809       -0.0000000000000000        0.0000000000000000     
   2389.3296799317809       -0.0000000000000000        0.0000000000000000     
   2389.3296799317809       -0.0000000000000000        0.0000000000000000     
   2389.3296799317809       -0.0000000000000000        0.0000000000000000     
   2389.3296799317809       -0.0000000000000000        0.0000000000000000     
   2389.3296799317809       -0.0000000000000000       -0.0000000000000000     
   2389.3296799317809       -0.0000000000000000       -0.0000000000000000     
   2389.3296799317809       -0.0000000000000000       -0.0000000000000000     
   2389.3296799317809       -0.0000000000000000       -0.0000000000000000     
   2389.3296799317809       -0.0000000000000000       -0.0000000000000000     
   2389.3296799317809       -0.0000000000000000       -0.0000000000000000     
   2389.3296799317809       -0.0000000000000000       -0.0000000000000000     
   2389.3296799317809       -0.0000000000000000       -0.0000000000000000     
   2389.3296799317809       -0.0000000000000000       -0.0000000000000000     
   2389.3296799317809       -0.0000000000000000       -0.0000000000000000     
   2389.3296799317809       -0.0000000000000000       -0.0000000000000000     
   2389.3296799317809       -0.0000000000000000       -0.0000000000000000     
   2389.3296799317809       -0.0000000000000000       -0.0000000000000000     
   2389.3296799317809       -0.0000000000000000       -0.0000000000000000     
   2389.3296799317809       -0.0000000000000000       -0.0000000000000000     
   2389.3296799317809       -0.0000000000000000       -0.0000000000000000     
   2389.3296799317809       -0.0000000000000000       -0.0000000000000000     
   2389.3296799317809       -0.0000000000000000       -0.0000000000000000     
   2389.3296799317809       -0.0000000000000000       -0.0000000000000000     
   2389.3296799317809       -0.0000000000000000       -0.0000000000000000     
   2389.3296799317809       -0.0000000000000000       -0.0000000000000000     
   2389.3296799317809       -0.0000000000000000       -0.0000000000000000     
   2389.3296799317809       -0.0000000000000000       -0.0000000000000000     
   2389.3296799317809       -0.0000000000000000       -0.0000000000000000     
   2389.3296799317809       -0.0000000000000000       -0.0000000000000000     
   2389.3296799317809       -0.0000000000000000       -0.0000000000000000     
   2389.3296799317809       -0.0000000000000000       -0.0000000000000000     
   2389.3296799317809       -0.0000000000000000       -0.0000000000000000     
   2389.3296799317809       -0.0000000000000000       -0.0000000000000000     
   2389.3296799317809       -0.0000000000000000       -0.0000000000000000     
   2389.3296799317809       -0.0000000000000000       -0.0000000000000000     
   2389.3296799317809       -0.0000000000000000       -0.0000000000000000     
   2389.3296799317809       -0.0000000000000000       -0.0000000000000000     
   2389.3296799317809       -0.0000000000000000       -0.0000000000000000     
   2389.3296799317809       -0.0000000000000000       -0.0000000000000000     
   2389.3296799317809       -0.0000000000000000       -0.0000000000000000     
   2389.3296799317809       -0.0000000000000000       -0.0000000000000000     
   2389.3296799317809       -0.0000000000000000       -0.0000000000000000     
   2389.3296799317809       -0.0000000000000000       -0.0000000000000000     
   2389.3296799317809       -0.0000000000000000       -0.0000000000000000     
   2389.3296799317809       -0.0000000000000000       -0.0000000000000000     
   2389.3296799317809       -0.0000000000000000       -0.0000000000000000     
   2389.3296799317809       -0.0000000000000000       -0.0000000000000000     
   2389.3296799317809       -0.0000000000000000       -0.0000000000000000     
   2389.3296799317809       -0.0000000000000000       -0.0000000000000000     
   2389.3296799317809       -0.0000000000000000       -0.0000000000000000     
   2389.3296799317809       -0.0000000000000000       -0.0000000000000000     
   2389.3296799317809       -0.0000000000000000       -0.0000000000000000     
   2389.3296799317809       -0.0000000000000000       -0.0000000000000000     
   2389.3296799317809       -0.0000000000000000       -0.0000000000000000     
   2389.3296799317809        0.0000000000000000       -0.0000000000000000     
   2389.3296799317809        0.0000000000000000       -0.0000000000000000     
   2389.3296799317809        0.0000000000000000       -0.0000000000000000     
   2389.3296799317809        0.0000000000000000       -0.0000000000000000     
   2389.3296799317809        0.0000000000000000       -0.0000000000000000     
   2389.3296799317809        0.0000000000000000       -0.0000000000000000     
   2389.3296799317809        0.0000000000000000       -0.0000000000000000     
   2389.3296799317809        0.0000000000000000       -0.0000000000000000     
   2389.3296799317809        0.0000000000000000       -0.0000000000000000     
   2389.3296799317809        0.0000000000000000       -0.0000000000000000     
   2389.3296799317809        0.0000000000000000       -0.0000000000000000     
   2389.3296799317809        0.0000000000000000       -0.0000000000000000     
   2389.3296799317809        0.0000000000000000       -0.0000000000000000     
   2389.3296799317809        0.0000000000000000       -0.0000000000000000     
   2389.3296799317809        0.0000000000000000       -0.0000000000000000     
   2389.3296799317809        0.0000000000000000       -0.0000000000000000     
   2389.3296799317809        0.0000000000000000       -0.0000000000000000     
   2389.3296799317809        0.0000000000000000       -0.0000000000000000     
   2389.3296799317809        0.0000000000000000       -0.0000000000000000     
   2389.3296799317809        0.0000000000000000       -0.0000000000000000     
   2389.3296799317809        0.0000000000000000       -0.0000000000000000     
   2389.3296799317809        0.0000000000000000       -0.0000000000000000     
   2389.3296799317809        0.0000000000000000       -0.0000000000000000     
   2389.3296799317809        0.0000000000000000       -0.0000000000000000     
   2389.3296799317809        0.0000000000000000       -0.0000000000000000     
   2389.3296799317809        0.0000000000000000       -0.0000000000000000     
   2389.3296799317809        0.0000000000000000       -0.0000000000000000     
   2389.3296799317809        0.0000000000000000       -0.0000000000000000     
   2389.3296799317809        0.0000000000000000       -0.0000000000000000     
   2389.3296799317809        0.0000000000000000       -0.0000000000000000     
   2389.3296799317809        0.0000000000000000       -0.0000000000000000     
   2389.3296799317809        0.0000000000000000       -0.0000000000000000     
   2389.3296799317809        0.0000000000000000       -0.0000000000000000     
   2389.3296799317809        0.0000000000000000       -0.0000000000000000     
   2389.3296799317809        0.0000000000000000       -0.0000000000000000     
   2389.3296799317809        0.0000000000000000       -0.0000000000000000     
   2389.3296799317809        0.0000000000000000       -0.0000000000000000     
   2389.3296799317809        0.0000000000000000       -0.0000000000000000     
   2389.3296799317809        0.0000000000000000       -0.0000000000000000     
   2389.3296799317809        0.0000000000000000       -0.0000000000000000     
   2389.3296799317809        0.0000000000000000       -0.0000000000000000     
   2389.3296799317809        0.0000000000000000       -0.0000000000000000     
   2389.3296799317809        0.0000000000000000       -0.0000000000000000     
   2389.3296799317809        0.0000000000000000       -0.0000000000000000     
   2389.3296799317809        0.0000000000000000       -0.0000000000000000     
   2389.3296799317809        0.0000000000000000       -0.0000000000000000     
   2389.3296799317809        0.0000000000000000       -0.0000000000000000     
   2389.3296799317809        0.0000000000000000       -0.0000000000000000     
   2389.3296799317809        0.0000000000000000       -0.0000000000000000     
   2389.3296799317809        0.0000000000000000       -0.0000000000000000     
   2389.3296799317809        0.0000000000000000        0.0000000000000000     
   2402.9462804320437        75.515629096743453        0.0000000000000000     
   2402.6938280357281        75.470436970941023        2.3717540306569131     
   2402.4287064649029        75.350382931522518        4.7406442695721420     
   2402.1517232872261        75.155628915156768        7.1042986022651773     
   2401.8637036810674        74.886412729368828        9.4603539741605172     
   2401.5654873612825        74.543047463102127        11.806458852529566     
   2401.2579254809993        74.125920815925895        14.140275644484444     
   2400.9418775221484        73.635494349575467        16.459483068354622     
   2400.6182081873917        73.072302665584701        18.761778476105754     
   2400.2877843059641        72.436952512810620        21.044880124787426     
   2399.9514717657712        71.730121828662845        23.306529395320137     
   2399.6101324838392        70.952558717832588        25.544492957249016     
   2399.2646214269375        70.105080372271431        27.756564878399658     
   2398.9157836938657        69.188571936099066        29.940568678668075     
   2398.5644516705174        68.203985319022550        32.094359327459216     
   2398.2114422684181        67.152337961730410        34.215825184555101     
   2397.8575542570111        66.034711556584526        36.302889884442877     
   2397.5035656994260        64.852250726772070        38.353514164361229     
   2397.1502315010061        63.606161666902779        40.365697636532680     
   2396.7982810792878        62.297710747845635        42.337480505234012     
   2396.4484161635651        60.928223088393374        44.266945229519770     
   2396.1013087315805        59.499081096129238        46.152218132550942     
   2395.7575990902724        58.011722979649022        47.991470958594881     
   2395.4178941068672        56.467641234063059        49.782922378849030     
   2395.0827655959711        54.868381101474128        51.524839447304558     
   2394.7527488676528        53.215539007896986        53.215539007902493     
   2394.4283414408424        51.510760977858162        54.853389054247764     
   2394.1100019257046        49.755741027691514        56.436810043134713     
   2393.7981490779453        47.952219538329537        57.964276163101772     
   2393.4931610273611        46.101981608183991        59.434316559176182     
   2393.1953746822296        44.206855386513979        60.845516514889503     
   2392.9050853104709        42.268710387497393        62.196518592546376     
   2392.6225462978305        40.289455785054685        63.486023732610803     
   2392.3479690826703        38.271038688323799        64.712792312941133     
   2392.0815232662549        36.215442397551662        65.875645168453872     
   2391.8233368968154        34.124684640056181        66.973464571636484     
   2391.5734969249743        32.000815785818688        68.005195174154451     
   2391.3320498275039        29.845917042196682        68.969844909616427     
   2391.0990023957688        27.662098627197448        69.866485857372908     
   2390.8743226845859        25.451497920726368        70.694255067030184     
   2390.6579411166399        23.216277593220710        71.452355343166218     
   2390.4497517370332        20.958623711098816        72.140055989539761     
   2390.2496136119771        18.680743818496698        72.756693511891385     
   2390.0573523651155        16.384864994829098        73.301672278246684     
   2389.8727618444391        14.073231887798197        73.774465135450640     
   2389.6956059122904        11.748104721581276        74.174613980489553     
   2389.5256203504655        9.4117572800559266        74.501730284995986     
   2389.3625148720266        7.0664748650690807        74.755495571183701     
   2389.2059752309856        4.7145522299198888        74.935661837325625     
   2389.0556654207112        2.3582914884078185        75.042051930772615     
   2388.9112299514973       -7.7635768682513502E-012   75.074559866409899     
   2388.7722961974987       -2.3580117681820498        75.033151088371639     
   2388.6384768029129       -4.7134324014202704        74.917862672773694     
   2388.5093721370940       -7.0639517185736347        74.728803469190211     
   2388.3845727880621       -9.4072629726611723        74.466154178585057     
   2388.2636620837443       -11.741065069344865        74.130167365419751     
   2388.1462186301487       -14.063064801344694        73.721167401693393     
   2388.0318188556203       -16.370979096640699        73.239550340728002     
   2387.9200395502917       -18.662537278071461        72.685783718594763     
   2387.8104603898532       -20.935483331706330        72.060406281182480     
   2387.7026664328605       -23.187578181143603        71.364027635039591     
   2387.5962505808452       -25.416601964671379        70.597327820272056     
   2387.4908159907227       -27.620356312024736        69.761056803954375     
   2387.3859784291208       -29.796666617282614        68.856033892705113     
   2387.2813685585347       -31.943384304274613        67.883147063292157     
   2387.1766341454841       -34.058389080711933        66.843352210364927     
   2387.0714421811913       -36.139591177120465        65.737672310659264     
   2386.9654809056469       -38.184933566538625        64.567196503281806     
   2386.8584617263773       -40.192394160850370        63.333079085956783     
   2386.7501210236355       -42.159987979554003        62.036538427401702     
   2386.6402218342810       -44.085769286723988        60.678855796291785     
   2386.5285554070865       -45.967833691902918        59.261374107571150     
   2386.4149426227987       -47.804320210668266        57.785496587169774     
   2386.2992352728556       -49.593413280651333        56.252685356487866     
   2386.1813171912868       -51.333344728844537        54.664459938309427     
   2386.0611052349536       -53.022395686119381        53.022395686102911     
   2385.9385501079414       -54.658898444986079        51.328122138956275     
   2385.8136370266188       -56.241238256763445        49.583321304674591     
   2385.6863862225359       -57.767855064484998        47.789725873836730     
   2385.5568532810785       -59.237245168051018        45.949117367864346     
   2385.4251293144512       -60.647962818337760        44.063324224394911     
   2385.2913409683383       -61.998621737200558        42.134219823474197     
   2385.1556502622566       -63.287896560547267        40.163720458286157     
   2385.0182542643429       -64.514524201917169        38.153783254320139     
   2384.8793846020212       -65.677305134272146        36.106404041035354     
   2384.7393068106853       -66.775104587991123        34.023615180218897     
   2384.5983195231952       -67.806853663352328        31.907483355344983     
   2384.4567535036836       -68.771550356089918        29.760107326330154     
   2384.3149705297451       -69.668260494917490        27.583615654138939     
   2384.1733621277590       -70.496118590220220        25.380164399730198     
   2384.0323481666433       -71.254328593427417        23.151934801841442     
   2383.8923753159111       -71.942164566883704        20.901130938092280     
   2383.7539153744342       -72.558971264340897        18.629977373843911     
   2383.6174634768013       -73.104164622487573        16.340716803184062     
   2383.4835361846335       -73.577232164221400        14.035607686314473     
   2383.3526694706343       -73.977733314644198        11.716921887502815     
   2383.2254166035377       -74.305299631022507        9.3869423176239071     
   2383.1023459424796       -74.559634948204547        7.0479605851576794     
   2382.9840386496230       -74.740515441214669        4.7022746593350790     
   2382.8710863301194       -74.847789606958642        2.3521865489297125     
   2382.7640886087552       -74.881378167166801       -1.5487199297228410E-011
   2382.6636506527984       -74.841273894873126       -2.3519817844592410     
   2382.5703806507254       -74.727541366878810       -4.7014583997963504     
   2382.4848872566099       -74.540316644775672       -7.0461344678635980     
   2382.4077770100653       -74.279806887210228       -9.3837218351744376     
   2382.3396517416186       -73.946289896147363       -11.711941739293700     
   2382.2811059734604       -73.540113599952150       -14.028526941519972     
   2382.2327243254344       -73.061695476138397       -16.331223824300761     
   2382.1950789360862       -72.511521916644071       -18.617794452059467     
   2382.1687269085119       -71.890147538478757       -20.886018594365542     
   2382.1542077905797       -71.198194442552179       -23.133695710623371     
   2382.1520410989729       -70.436351423434971       -25.358646895692701     
   2382.1627238963233       -69.605373132724552       -27.558716786080698     
   2382.1867284304462       -68.706079198588895       -29.731775426560539     
   2382.2244998445231       -67.739353303946501       -31.875720097273849     
   2382.2764539667442       -66.706142225605092       -33.988477101560719     
   2382.3429751877052       -65.607454836533563       -36.068003514931881     
   2382.4244144334912       -64.444361073277875       -38.112288895749842     
   2382.5210872421189       -63.217990870358051       -40.119356958320630     
   2382.6332719505963       -61.929533063295857       -42.087267209210744     
   2382.7612079995697       -60.580234261732095       -44.014116547698812     
   2382.9050943620909       -59.171397693890043       -45.898040831342577     
   2383.0650881026863       -57.704382023439059       -47.737216407694120     
   2383.2413030724783       -56.180600139605218       -49.529861613223360     
   2383.4338087457081       -54.601517921169275       -51.274238240518308     
   2383.6426292025380       -52.968652974786828       -52.968652974814241     
   2383.8677422626165       -51.283573347865321       -54.611458800868284     
   2384.1090787733660       -49.547896216035745       -56.201056381136738     
   2384.3665220565454       -47.763286545070841       -57.735895406134986     
   2384.6399075160775       -45.931455726921811       -59.214475917760019     
   2384.9290224097244       -44.054160189381086       -60.635349606239352     
   2385.2336057866064       -42.133199978723063       -61.997121081234056     
   2385.5533485920969       -40.170417314539151       -63.298449117470916     
   2385.8878939410702       -38.167695115858265       -64.538047875113506     
   2386.2368375599553       -36.126955497543435       -65.714688094898236     
   2386.5997283975057       -34.050158235866796       -66.827198267871083     
   2386.9760694036322       -31.939299202104298       -67.874465779354722     
   2387.3653184750924       -29.796408762944797       -68.855438026566077     
   2387.7668895662691       -27.623550146491009       -69.769123509084309     
   2388.1801539626913       -25.422817772628349       -70.614592891147694     
   2388.6044417143780       -23.196335546566637       -71.390980034531566     
   2389.0390432255076       -20.946255114405535       -72.097483000535476     
   2389.4832109963395       -18.674754079651461       -72.733365019383371     
   2389.9361615127327       -16.384034179706937       -73.297955425122822     
   2390.3970772780299       -14.076319421478100       -73.790650553896313     
   2390.8651089815012       -11.753854175385612       -74.210914603254594     
   2391.3393777969918       -9.4189012272349331       -74.558280449989965     
   2391.8189778048331       -7.0737397875857058       -74.832350423787574     
   2392.3029785295612       -4.7206634584709573       -75.032797033829993     
   2392.7904275854366       -2.3619781575443501       -75.159363645343419     
   2393.2803534212471        2.3366728225963481E-011  -75.211865102946518     
   2393.7717681554018        2.3629468613122522       -75.190188297558720     
   2394.2636704918177        4.7245324362276362       -75.094292673539172     
   2394.7550487066856        7.0824231377311504       -74.924210672671308     
   2395.2448836957788        9.4342840602847211       -74.680048111573441     
   2395.7321520715682        11.777781294753986       -74.361984489110142     
   2396.2158292990839        14.110584277710982       -73.970273220400472     
   2396.6948928591414        16.430368172758001       -73.505241794069818     
   2397.1683254272780        18.734816281185026       -72.967291849469916     
   2397.6351180565312        21.021622478957813       -72.356899170701183     
   2398.0942733520228        23.288493676732159       -71.674613594407802     
   2398.5448086251599        25.533152299287977       -70.921058828482956     
   2398.9857590152214        27.753338780493809       -70.096932179015781     
   2399.4161805660701        29.946814069636883       -69.203004183034167     
   2399.8351532457568        32.111362144696876       -68.240118144846022     
   2400.2417838968922        34.244792527905432       -67.209189574054690     
   2400.6352091058247        36.344942798713632       -66.111205523622942     
   2401.0145979788558        38.409681099099338       -64.947223826676648     
   2401.3791548140161        40.436908625975569       -63.718372231079947     
   2401.7281216572637        42.424562105324476       -62.425847431167128     
   2402.0607807323354        44.370616242567046       -61.070913996388747     
   2402.3764567339822        46.273086143602846       -59.654903197010398     
   2402.6745189747753        48.130029700902249       -58.179211727395803     
   2402.9543833762873        49.939549939022868       -56.645300327801920     
   2403.2155142960255        51.699797313936863       -55.054692306017273     
   2403.4574261822081        53.408971960612398       -53.408971960573709     
   2403.6796850491460        55.065325883375813       -51.709782907661925     