 VARIABLES = "x_1", "x_2", "x_3"
 ZONE F = POINT , I =         201  , J =         101
   1530.9291237291054        0.0000000000000000        0.0000000000000000     
   1530.9938367189752        0.0000000000000000        0.0000000000000000     
   1531.0643295936152        0.0000000000000000        0.0000000000000000     
   1531.1403264829430        0.0000000000000000        0.0000000000000000     
   1531.2215298488682        0.0000000000000000        0.0000000000000000     
   1531.3076216220495        0.0000000000000000        0.0000000000000000     
   1531.3982644193989        0.0000000000000000        0.0000000000000000     
   1531.4931028381172        0.0000000000000000        0.0000000000000000     
   1531.5917648217462        0.0000000000000000        0.0000000000000000     
   1531.6938630934137        0.0000000000000000        0.0000000000000000     
   1531.7989966511739        0.0000000000000000        0.0000000000000000     
   1531.9067523200565        0.0000000000000000        0.0000000000000000     
   1532.0167063551880        0.0000000000000000        0.0000000000000000     
   1532.1284260900889        0.0000000000000000        0.0000000000000000     
   1532.2414716240264        0.0000000000000000        0.0000000000000000     
   1532.3553975420893        0.0000000000000000        0.0000000000000000     
   1532.4697546614464        0.0000000000000000        0.0000000000000000     
   1532.5840917970938        0.0000000000000000        0.0000000000000000     
   1532.6979575402356        0.0000000000000000        0.0000000000000000     
   1532.8109020423180        0.0000000000000000        0.0000000000000000     
   1532.9224787976507        0.0000000000000000        0.0000000000000000     
   1533.0322464174631        0.0000000000000000        0.0000000000000000     
   1533.1397703882194        0.0000000000000000        0.0000000000000000     
   1533.2446248069950        0.0000000000000000        0.0000000000000000     
   1533.3463940867512        0.0000000000000000        0.0000000000000000     
   1533.4446746243909        0.0000000000000000        0.0000000000000000     
   1533.5390764245772        0.0000000000000000        0.0000000000000000     
   1533.6292246724206        0.0000000000000000        0.0000000000000000     
   1533.7147612482920        0.0000000000000000        0.0000000000000000     
   1533.7953461782290        0.0000000000000000        0.0000000000000000     
   1533.8706590136167        0.0000000000000000        0.0000000000000000     
   1533.9404001340997        0.0000000000000000        0.0000000000000000     
   1534.0042919679759        0.0000000000000000        0.0000000000000000     
   1534.0620801246469        0.0000000000000000        0.0000000000000000     
   1534.1135344340748        0.0000000000000000        0.0000000000000000     
   1534.1584498885638        0.0000000000000000        0.0000000000000000     
   1534.1966474826334        0.0000000000000000        0.0000000000000000     
   1534.2279749471588        0.0000000000000000        0.0000000000000000     
   1534.2523073744528        0.0000000000000000        0.0000000000000000     
   1534.2695477314237        0.0000000000000000        0.0000000000000000     
   1534.2796272584706        0.0000000000000000        0.0000000000000000     
   1534.2825057522796        0.0000000000000000        0.0000000000000000     
   1534.2781717312246        0.0000000000000000        0.0000000000000000     
   1534.2666424826102        0.0000000000000000        0.0000000000000000     
   1534.2479639915409        0.0000000000000000        0.0000000000000000     
   1534.2222107517428        0.0000000000000000        0.0000000000000000     
   1534.1894854592103        0.0000000000000000        0.0000000000000000     
   1534.1499185900782        0.0000000000000000        0.0000000000000000     
   1534.1036678646644        0.0000000000000000        0.0000000000000000     
   1534.0509176001271        0.0000000000000000        0.0000000000000000     
   1533.9918779546956       -0.0000000000000000        0.0000000000000000     
   1533.9267840669027       -0.0000000000000000        0.0000000000000000     
   1533.8558950937304       -0.0000000000000000        0.0000000000000000     
   1533.7794931519891       -0.0000000000000000        0.0000000000000000     
   1533.6978821676973       -0.0000000000000000        0.0000000000000000     
   1533.6113866385801       -0.0000000000000000        0.0000000000000000     
   1533.5203503151874       -0.0000000000000000        0.0000000000000000     
   1533.4251348064386       -0.0000000000000000        0.0000000000000000     
   1533.3261181156997       -0.0000000000000000        0.0000000000000000     
   1533.2236931137518       -0.0000000000000000        0.0000000000000000     
   1533.1182659552348       -0.0000000000000000        0.0000000000000000     
   1533.0102544453391       -0.0000000000000000        0.0000000000000000     
   1532.9000863636650       -0.0000000000000000        0.0000000000000000     
   1532.7881977522989       -0.0000000000000000        0.0000000000000000     
   1532.6750311752260       -0.0000000000000000        0.0000000000000000     
   1532.5610339562586       -0.0000000000000000        0.0000000000000000     
   1532.4466564026711       -0.0000000000000000        0.0000000000000000     
   1532.3323500217243       -0.0000000000000000        0.0000000000000000     
   1532.2185657372002       -0.0000000000000000        0.0000000000000000     
   1532.1057521130158       -0.0000000000000000        0.0000000000000000     
   1531.9943535908635       -0.0000000000000000        0.0000000000000000     
   1531.8848087487015       -0.0000000000000000        0.0000000000000000     
   1531.7775485867649       -0.0000000000000000        0.0000000000000000     
   1531.6729948475941       -0.0000000000000000        0.0000000000000000     
   1531.5715583763699       -0.0000000000000000        0.0000000000000000     
   1531.4736375276389       -0.0000000000000000        0.0000000000000000     
   1531.3796166242598       -0.0000000000000000        0.0000000000000000     
   1531.2898644741790       -0.0000000000000000        0.0000000000000000     
   1531.2047329503450       -0.0000000000000000        0.0000000000000000     
   1531.1245556388171       -0.0000000000000000        0.0000000000000000     
   1531.0496465598233       -0.0000000000000000        0.0000000000000000     
   1530.9802989662282       -0.0000000000000000        0.0000000000000000     
   1530.9167842235604       -0.0000000000000000        0.0000000000000000     
   1530.8593507754363       -0.0000000000000000        0.0000000000000000     
   1530.8082231978951       -0.0000000000000000        0.0000000000000000     
   1530.7636013458371       -0.0000000000000000        0.0000000000000000     
   1530.7256595944186       -0.0000000000000000        0.0000000000000000     
   1530.6945461779333       -0.0000000000000000        0.0000000000000000     
   1530.6703826283683       -0.0000000000000000        0.0000000000000000     
   1530.6532633154829       -0.0000000000000000        0.0000000000000000     
   1530.6432550899181       -0.0000000000000000        0.0000000000000000     
   1530.6403970305068       -0.0000000000000000        0.0000000000000000     
   1530.6447002966092       -0.0000000000000000        0.0000000000000000     
   1530.6561480859502       -0.0000000000000000        0.0000000000000000     
   1530.6746956981024       -0.0000000000000000        0.0000000000000000     
   1530.7002707034017       -0.0000000000000000        0.0000000000000000     
   1530.7327732167498       -0.0000000000000000        0.0000000000000000     
   1530.7720762754095       -0.0000000000000000        0.0000000000000000     
   1530.8180263195493       -0.0000000000000000        0.0000000000000000     
   1530.8704437739736       -0.0000000000000000        0.0000000000000000     
   1530.9291237291056       -0.0000000000000000       -0.0000000000000000     
   1530.9938367189757       -0.0000000000000000       -0.0000000000000000     
   1531.0643295936159       -0.0000000000000000       -0.0000000000000000     
   1531.1403264829437       -0.0000000000000000       -0.0000000000000000     
   1531.2215298488684       -0.0000000000000000       -0.0000000000000000     
   1531.3076216220502       -0.0000000000000000       -0.0000000000000000     
   1531.3982644193995       -0.0000000000000000       -0.0000000000000000     
   1531.4931028381177       -0.0000000000000000       -0.0000000000000000     
   1531.5917648217467       -0.0000000000000000       -0.0000000000000000     
   1531.6938630934146       -0.0000000000000000       -0.0000000000000000     
   1531.7989966511748       -0.0000000000000000       -0.0000000000000000     
   1531.9067523200574       -0.0000000000000000       -0.0000000000000000     
   1532.0167063551887       -0.0000000000000000       -0.0000000000000000     
   1532.1284260900900       -0.0000000000000000       -0.0000000000000000     
   1532.2414716240271       -0.0000000000000000       -0.0000000000000000     
   1532.3553975420903       -0.0000000000000000       -0.0000000000000000     
   1532.4697546614470       -0.0000000000000000       -0.0000000000000000     
   1532.5840917970947       -0.0000000000000000       -0.0000000000000000     
   1532.6979575402363       -0.0000000000000000       -0.0000000000000000     
   1532.8109020423187       -0.0000000000000000       -0.0000000000000000     
   1532.9224787976514       -0.0000000000000000       -0.0000000000000000     
   1533.0322464174640       -0.0000000000000000       -0.0000000000000000     
   1533.1397703882201       -0.0000000000000000       -0.0000000000000000     
   1533.2446248069962       -0.0000000000000000       -0.0000000000000000     
   1533.3463940867521       -0.0000000000000000       -0.0000000000000000     
   1533.4446746243914       -0.0000000000000000       -0.0000000000000000     
   1533.5390764245781       -0.0000000000000000       -0.0000000000000000     
   1533.6292246724211       -0.0000000000000000       -0.0000000000000000     
   1533.7147612482925       -0.0000000000000000       -0.0000000000000000     
   1533.7953461782295       -0.0000000000000000       -0.0000000000000000     
   1533.8706590136171       -0.0000000000000000       -0.0000000000000000     
   1533.9404001340999       -0.0000000000000000       -0.0000000000000000     
   1534.0042919679763       -0.0000000000000000       -0.0000000000000000     
   1534.0620801246478       -0.0000000000000000       -0.0000000000000000     
   1534.1135344340753       -0.0000000000000000       -0.0000000000000000     
   1534.1584498885643       -0.0000000000000000       -0.0000000000000000     
   1534.1966474826334       -0.0000000000000000       -0.0000000000000000     
   1534.2279749471591       -0.0000000000000000       -0.0000000000000000     
   1534.2523073744533       -0.0000000000000000       -0.0000000000000000     
   1534.2695477314235       -0.0000000000000000       -0.0000000000000000     
   1534.2796272584706       -0.0000000000000000       -0.0000000000000000     
   1534.2825057522798       -0.0000000000000000       -0.0000000000000000     
   1534.2781717312246       -0.0000000000000000       -0.0000000000000000     
   1534.2666424826102       -0.0000000000000000       -0.0000000000000000     
   1534.2479639915405       -0.0000000000000000       -0.0000000000000000     
   1534.2222107517430       -0.0000000000000000       -0.0000000000000000     
   1534.1894854592103       -0.0000000000000000       -0.0000000000000000     
   1534.1499185900777       -0.0000000000000000       -0.0000000000000000     
   1534.1036678646640       -0.0000000000000000       -0.0000000000000000     
   1534.0509176001267       -0.0000000000000000       -0.0000000000000000     
   1533.9918779546952        0.0000000000000000       -0.0000000000000000     
   1533.9267840669024        0.0000000000000000       -0.0000000000000000     
   1533.8558950937297        0.0000000000000000       -0.0000000000000000     
   1533.7794931519888        0.0000000000000000       -0.0000000000000000     
   1533.6978821676969        0.0000000000000000       -0.0000000000000000     
   1533.6113866385795        0.0000000000000000       -0.0000000000000000     
   1533.5203503151870        0.0000000000000000       -0.0000000000000000     
   1533.4251348064379        0.0000000000000000       -0.0000000000000000     
   1533.3261181156988        0.0000000000000000       -0.0000000000000000     
   1533.2236931137513        0.0000000000000000       -0.0000000000000000     
   1533.1182659552342        0.0000000000000000       -0.0000000000000000     
   1533.0102544453382        0.0000000000000000       -0.0000000000000000     
   1532.9000863636643        0.0000000000000000       -0.0000000000000000     
   1532.7881977522982        0.0000000000000000       -0.0000000000000000     
   1532.6750311752253        0.0000000000000000       -0.0000000000000000     
   1532.5610339562575        0.0000000000000000       -0.0000000000000000     
   1532.4466564026704        0.0000000000000000       -0.0000000000000000     
   1532.3323500217239        0.0000000000000000       -0.0000000000000000     
   1532.2185657371992        0.0000000000000000       -0.0000000000000000     
   1532.1057521130151        0.0000000000000000       -0.0000000000000000     
   1531.9943535908631        0.0000000000000000       -0.0000000000000000     
   1531.8848087487011        0.0000000000000000       -0.0000000000000000     
   1531.7775485867642        0.0000000000000000       -0.0000000000000000     
   1531.6729948475934        0.0000000000000000       -0.0000000000000000     
   1531.5715583763697        0.0000000000000000       -0.0000000000000000     
   1531.4736375276384        0.0000000000000000       -0.0000000000000000     
   1531.3796166242589        0.0000000000000000       -0.0000000000000000     
   1531.2898644741783        0.0000000000000000       -0.0000000000000000     
   1531.2047329503446        0.0000000000000000       -0.0000000000000000     
   1531.1245556388169        0.0000000000000000       -0.0000000000000000     
   1531.0496465598230        0.0000000000000000       -0.0000000000000000     
   1530.9802989662276        0.0000000000000000       -0.0000000000000000     
   1530.9167842235602        0.0000000000000000       -0.0000000000000000     
   1530.8593507754356        0.0000000000000000       -0.0000000000000000     
   1530.8082231978947        0.0000000000000000       -0.0000000000000000     
   1530.7636013458368        0.0000000000000000       -0.0000000000000000     
   1530.7256595944182        0.0000000000000000       -0.0000000000000000     
   1530.6945461779333        0.0000000000000000       -0.0000000000000000     
   1530.6703826283681        0.0000000000000000       -0.0000000000000000     
   1530.6532633154829        0.0000000000000000       -0.0000000000000000     
   1530.6432550899181        0.0000000000000000       -0.0000000000000000     
   1530.6403970305066        0.0000000000000000       -0.0000000000000000     
   1530.6447002966092        0.0000000000000000       -0.0000000000000000     
   1530.6561480859505        0.0000000000000000       -0.0000000000000000     
   1530.6746956981024        0.0000000000000000       -0.0000000000000000     
   1530.7002707034017        0.0000000000000000       -0.0000000000000000     
   1530.7327732167500        0.0000000000000000       -0.0000000000000000     
   1530.7720762754095        0.0000000000000000       -0.0000000000000000     
   1530.8180263195495        0.0000000000000000       -0.0000000000000000     
   1530.8704437739739        0.0000000000000000       -0.0000000000000000     
   1530.9291237291063        0.0000000000000000        0.0000000000000000     
   1531.7857605614220        48.138306832823396        0.0000000000000000     
   1532.2137430244020        48.127996738339831        1.5124832296327035     
   1532.6661859148410        48.070930764399144        3.0243666136156069     
   1533.1418615680384        47.967095377564846        4.5342254940112703     
   1533.6392543815518        47.816510989180010        6.0406301127250144     
   1534.1565709543395        47.619232823891487        7.5421455394963459     
   1534.6917530510752        47.375351958799257        9.0373317198369278     
   1535.2424932433053        47.084996515248918        10.524743668278830     
   1535.8062530535562        46.748332981929451        12.002931829699591     
   1536.3802834043797        46.365567644948435        13.470442628478850     
   1536.9616471518000        45.936948097982501        14.925819221864309     
   1537.5472434619185        45.462764803485484        16.367602470237998     
   1538.1338337708241        44.943352674321631        17.794332133039198     
   1538.7180690516809        44.379092644105775        19.204548294984477     
   1539.2965180992076        43.770413194000959        20.596793022999861     
   1539.8656965311316        43.117791803763872        21.969612250021669     
   1540.4220961987016        42.421756295439941        23.321557877607873     
   1540.9622146944496        41.682886039292427        24.651190085211550     
   1541.4825846451968        40.901812993282299        25.957079830081057     
   1541.9798024820823        40.079222549672352        27.237811518144248     
   1542.4505563872342        39.215854165067718        28.491985822980343     
   1542.8916531286698        38.312501753375336        29.718222627148290     
   1543.3000435110753        37.370013824704678        30.915164057784626     
   1543.6728461901209        36.389293357069633        32.081477586553959     
   1544.0073696217110        35.371297391807836        33.215859162770094     
   1544.3011319446975        34.317036347823937        34.317036347827489     
   1544.5518786257012        33.227573053998597        35.383771419002841     
   1544.7575977272318        32.104021503294398        36.414864411199410     
   1544.9165326947550        30.947545336146693        37.409156066293107     
   1545.0271925940028        29.759356064564336        38.365530661366911     
   1545.0883597660090        28.540711051905426        39.282918689239565     
   1545.0990949033808        27.292911266466586        40.160299367250531     
   1545.0587395864038        26.017298829771207        40.996702953182869     
   1544.9669163511253        24.715254382716854        41.791212850416485     
   1544.8235263928070        23.388194294511138        42.542967487820412     
   1544.6287450366028        22.037567740570033        43.251161963431876     
   1544.3830151323584        20.664853676269114        43.915049444545645     
   1544.0870385517726        19.271557733637042        44.533942320367686     
   1543.7417659833052        17.859209067783315        45.107213106793992     
   1543.3483852331308        16.429357179097313        45.634295106089446     
   1542.9083082488760        14.983568736086603        46.114682827200546     
   1542.4231570869129        13.523424422194623        46.547932175088512     
   1541.8947490437536        12.050515828112793        46.933660419778398     
   1541.3250811677135        10.566442409043502        47.271545957754967     
   1540.7163143589198        9.0728085241461205        47.561327879886022     
   1540.0707572541658        7.5712205730736839        47.802805361211654     
   1539.3908500786258        6.0632842421476170        47.995836888715836     
   1538.6791486294064        4.5506018703812927        48.140339343608971     
   1537.9383085369284        3.0347699433034485        48.236286954727689     
   1537.1710699296716        1.5173767203969719        48.283710139432948     
   1536.3802426064262       -4.9929884220016924E-012   48.282694247901105     
   1535.5686917984083       -1.5157949763049305        48.233378225999459     
   1534.7393245818769       -3.0284574792164958        48.135953211063295     
   1533.8950769807225       -4.5364531081805159        47.990661073894074     
   1533.0389017783007       -6.0382654705867145        47.797792919223411     
   1532.1737570389159       -7.5323977266567415        47.557687555778813     
   1531.3025953221697       -9.0173740035212120        47.270729945985927     
   1530.4283535581319       -10.491740682506043        46.937349644282556     
   1529.5539435381395       -11.954067563953098        46.558019232031931     
   1528.6822429652866       -13.402948914064986        46.133252756134858     
   1527.8160870001909       -14.837004398312077        45.663604177662592     
   1526.9582602317500       -16.254879905903653        45.149665836184901     
   1526.1114889991031       -17.655248269735601        44.592066934948797     
   1525.2784339899797       -19.036809886114376        43.991472051675331     
   1524.4616830419384       -20.398293238451966        43.348579679476686     
   1523.6637440765235       -21.738455329053767        42.664120802241165     
   1522.8870381019876       -23.056082023105258        41.938857508773296     
   1522.1338922277509       -24.349988309022820        41.173581649989188     
   1521.4065326429686       -25.619018479483181        40.369113543530396     
   1520.7070775222965       -26.862046237695704        39.526300730247016     
   1520.0375298338590       -28.077974733835017        38.646016787085173     
   1519.3997700374007       -29.265736537009957        37.729160200970206     
   1518.7955486742592       -30.424293548700753        36.776653308274753     
   1518.2264788650352       -31.552636864241556        35.789441304379388     
   1517.6940287452128       -32.649786589642225        34.768491327645144     
   1517.1995138834511       -33.714791621815948        33.714791621805475     
   1516.7440897413835       -34.746729401080565        32.629350780330753     
   1516.3287442474173       -35.744705645609663        31.513197075708803     
   1515.9542905699241       -36.707854078293231        30.367377875813332     
   1515.6213601870900       -37.635336157196640        29.192959148592255     
   1515.3303963614442       -38.526340821452479        27.991025055204474     
   1515.0816481363056       -39.380084264945161        26.762677630469810     
   1514.8751649790836       -40.195809750527857        25.509036548088645     
   1514.7107922021655       -40.972787477709957        24.231238966549064     
   1514.5881672959299       -41.710314516745520        22.930439449995045     
   1514.5067173100560       -42.407714821812398        21.607809956606125     
   1514.4656574185594       -43.064339335476092        20.264539885269443     
   1514.4639908007632       -43.679566195864190        18.901836169545511     
   1514.5005099645709       -44.252801056923452        17.520923406180067     
   1514.5737996298385       -44.783477530785383        16.123044003739466     
   1514.6822412782933       -45.271057759627553        14.709458335391213     
   1514.8240194622501       -45.715033122491349        13.281444878463519     
   1514.9971299473486       -46.114925080318791        11.840300322243689     
   1515.1993897447285       -46.470286160021409        10.387339624564255     
   1515.4284490655650       -46.780701075724046        8.9238959971220098     
   1515.6818052058616       -47.045787982473506        7.4513207992213788     
   1515.9568183420754       -47.265199854713671        5.9709833197675213     
   1516.2507291888435       -47.438625978759291        4.4842704278876555     
   1516.5606784391114       -47.565793545410877        2.9925860735556449     
   1516.8837278748651       -47.646469325813953        1.4973506210496323     
   1517.2168830038636       -47.680461410746531       -9.8614211774192748E-012
   1517.5571170449498       -47.667620990800685       -1.4980153389204980     
   1517.9013960522814       -47.607844152482208       -2.9952316735271136     
   1518.2467049378915       -47.501073663166743       -4.4901734720766724     
   1518.5900741231567       -47.347300716197154       -5.9813550705885010     
   1518.9286065237152       -47.146566606253003       -7.4672825651653660     
   1519.2595045500009       -46.898964304533571       -8.9464559145848366     
   1519.5800967874795       -46.604639903318272       -10.417371244287708     
   1519.8878640077191       -46.263793900144300       -11.878523338614716     
   1520.1804641540632       -45.876682293187493       -13.328408303939755     
   1520.4557559445605       -45.443617461458345       -14.765526381312881     
   1520.7118207402164       -44.964968806111230       -16.188384883471368     
   1520.9469823388638       -44.441163132479424       -17.595501227709192     
   1521.1598243740336       -43.872684756334976       -18.985406033217913     
   1521.3492050240486       -43.260075322257876       -20.356646249218596     
   1521.5142687688497       -42.603933326790646       -21.707788278576444     
   1521.6544549702940       -41.904913344145122       -23.037421060691763     
   1521.7695030951968       -41.163724957498445       -24.344159077339292     
   1521.8594544483767       -40.381131404235305       -25.626645245807566     
   1521.9246503344577       -39.557947948729520       -26.883553665173153     
   1521.9657266210859       -38.695040001276254       -28.113592183810503     
   1521.9836047314207       -37.793321006454910       -29.315504759243179     
   1521.9794791490490       -36.853750128400669       -30.488073585121075     
   1521.9548015726723       -35.877329764079782       -31.630120964374200     
   1521.9112619098901       -34.865102918605160       -32.740510912346970     
   1521.8507663481071       -33.818150478821977       -33.818150478839478     
   1521.7754127849998       -32.737588422780938       -34.861990783349015     
   1521.6874639403795       -31.624565003272558       -35.871027763286264     
   1521.5893185049083       -30.480257943306871       -36.844302640400947     
   1521.4834807085381       -29.305871680307749       -37.780902115963599     
   1521.3725287124180       -28.102634693883271       -38.679958310288768     
   1521.2590822421766       -26.871796949389712       -39.540648466837403     
   1521.1457698879678       -25.614627486200849       -40.362194445299536     
   1521.0351964976639       -24.332412175710676       -41.143862031651480     
   1520.9299110843160       -23.026451669739266       -41.884960096127053     
   1520.8323756579393       -21.698059555279119       -42.584839632296642     
   1520.7449353752770       -20.348560726530856       -43.242892711967954     
   1520.6697903799784       -18.979289980037525       -43.858551391397469     
   1520.6089696801662       -17.591590833556669       -44.431286604325166     
   1520.5643073812432       -16.186814564208163       -44.960607076635924     
   1520.5374215595418       -14.766319456515507       -45.446058296033151     
   1520.5296960275875       -13.331470246305640       -45.887221568027954     
   1520.5422652048248       -11.883637742144307       -46.283713186847734     
   1520.5760022690561       -10.424198602128905       -46.635183746616129     
   1520.6315107239968       -8.9545352405173446       -46.941317614415233     
   1520.7091194775592       -7.4760358358872949       -47.201832582689967     
   1520.8088814840835       -5.9900944103536027       -47.416479713968805     
   1520.9305759619829       -4.4981109478494172       -47.585043386141734     
   1521.0737141564027       -3.0014915186337885       -47.707341541639522     
   1521.2375485748196       -1.5016483770356190       -47.783226138889759     
   1521.4210855821868        1.4854353763122183E-011  -47.812583799473067     
   1521.6231012016251        1.5020289648813243       -47.795336639561349     
   1521.8421599270318        3.0030078708570369       -47.731443269577888     
   1522.0766363156883        4.5015003903067603       -47.620899941668910     
   1522.3247390924082        5.9960650029388534       -47.463741820604184     
   1522.5845374623934        7.4852556741370302       -47.260044350214628     
   1522.8539892983197        8.9676227391118903       -47.009924684507048     
   1523.1309708387043        10.441714004053269       -46.713543150239971     
   1523.4133075099669        11.906076070575667       -46.371104706063001     
   1523.6988054643011        13.359255884637198       -45.982860362365948     
   1523.9852834101212        14.799802505895732       -45.549108525789038     
   1524.2706043019714        16.226269088247086       -45.070196232936631     
   1524.5527064528701        17.637215057197334       -44.546520239215702     
   1524.8296336344754        19.031208464865468       -43.978527930876133     
   1525.0995637395458        20.406828498917587       -43.366718031228906     
   1525.3608355970327        21.762668117711907       -42.711641075607304     
   1525.6119735528302        23.097336780486234       -42.013899633846890     
   1525.8517094585366        24.409463238646282       -41.274148263797215     
   1526.0790017462414        25.697698352183838       -40.493093184542516     
   1526.2930513088377        26.960717894037050       -39.671491663473518     
   1526.4933139519701        28.197225304830734       -38.810151116992614     
   1526.6795092346938        29.405954360929211       -37.909927930308434     
   1526.8516255702239        30.585671720080892       -36.971726007346525     
   1527.0099215147686        31.735179311112471       -35.996495067127654     
   1527.1549232302202        32.853316537077653       -34.985228707916320     
   1527.2874181642312        33.938962264915759       -33.938962264891181     
   1527.4084450477865        34.991036578926284       -32.858770490934042     