 VARIABLES = "x_1", "x_2", "x_3"
 ZONE F = POINT , I =         201  , J =         101
   384.16048972914524        0.0000000000000000        0.0000000000000000     
   384.16048972914524        0.0000000000000000        0.0000000000000000     
   384.16048972914524        0.0000000000000000        0.0000000000000000     
   384.16048972914524        0.0000000000000000        0.0000000000000000     
   384.16048972914524        0.0000000000000000        0.0000000000000000     
   384.16048972914524        0.0000000000000000        0.0000000000000000     
   384.16048972914524        0.0000000000000000        0.0000000000000000     
   384.16048972914524        0.0000000000000000        0.0000000000000000     
   384.16048972914524        0.0000000000000000        0.0000000000000000     
   384.16048972914524        0.0000000000000000        0.0000000000000000     
   384.16048972914524        0.0000000000000000        0.0000000000000000     
   384.16048972914524        0.0000000000000000        0.0000000000000000     
   384.16048972914524        0.0000000000000000        0.0000000000000000     
   384.16048972914524        0.0000000000000000        0.0000000000000000     
   384.16048972914524        0.0000000000000000        0.0000000000000000     
   384.16048972914524        0.0000000000000000        0.0000000000000000     
   384.16048972914524        0.0000000000000000        0.0000000000000000     
   384.16048972914524        0.0000000000000000        0.0000000000000000     
   384.16048972914524        0.0000000000000000        0.0000000000000000     
   384.16048972914524        0.0000000000000000        0.0000000000000000     
   384.16048972914524        0.0000000000000000        0.0000000000000000     
   384.16048972914524        0.0000000000000000        0.0000000000000000     
   384.16048972914524        0.0000000000000000        0.0000000000000000     
   384.16048972914524        0.0000000000000000        0.0000000000000000     
   384.16048972914524        0.0000000000000000        0.0000000000000000     
   384.16048972914524        0.0000000000000000        0.0000000000000000     
   384.16048972914524        0.0000000000000000        0.0000000000000000     
   384.16048972914524        0.0000000000000000        0.0000000000000000     
   384.16048972914524        0.0000000000000000        0.0000000000000000     
   384.16048972914524        0.0000000000000000        0.0000000000000000     
   384.16048972914524        0.0000000000000000        0.0000000000000000     
   384.16048972914524        0.0000000000000000        0.0000000000000000     
   384.16048972914524        0.0000000000000000        0.0000000000000000     
   384.16048972914524        0.0000000000000000        0.0000000000000000     
   384.16048972914524        0.0000000000000000        0.0000000000000000     
   384.16048972914524        0.0000000000000000        0.0000000000000000     
   384.16048972914524        0.0000000000000000        0.0000000000000000     
   384.16048972914524        0.0000000000000000        0.0000000000000000     
   384.16048972914524        0.0000000000000000        0.0000000000000000     
   384.16048972914524        0.0000000000000000        0.0000000000000000     
   384.16048972914524        0.0000000000000000        0.0000000000000000     
   384.16048972914524        0.0000000000000000        0.0000000000000000     
   384.16048972914524        0.0000000000000000        0.0000000000000000     
   384.16048972914524        0.0000000000000000        0.0000000000000000     
   384.16048972914524        0.0000000000000000        0.0000000000000000     
   384.16048972914524        0.0000000000000000        0.0000000000000000     
   384.16048972914524        0.0000000000000000        0.0000000000000000     
   384.16048972914524        0.0000000000000000        0.0000000000000000     
   384.16048972914524        0.0000000000000000        0.0000000000000000     
   384.16048972914524        0.0000000000000000        0.0000000000000000     
   384.16048972914524       -0.0000000000000000        0.0000000000000000     
   384.16048972914524       -0.0000000000000000        0.0000000000000000     
   384.16048972914524       -0.0000000000000000        0.0000000000000000     
   384.16048972914524       -0.0000000000000000        0.0000000000000000     
   384.16048972914524       -0.0000000000000000        0.0000000000000000     
   384.16048972914524       -0.0000000000000000        0.0000000000000000     
   384.16048972914524       -0.0000000000000000        0.0000000000000000     
   384.16048972914524       -0.0000000000000000        0.0000000000000000     
   384.16048972914524       -0.0000000000000000        0.0000000000000000     
   384.16048972914524       -0.0000000000000000        0.0000000000000000     
   384.16048972914524       -0.0000000000000000        0.0000000000000000     
   384.16048972914524       -0.0000000000000000        0.0000000000000000     
   384.16048972914524       -0.0000000000000000        0.0000000000000000     
   384.16048972914524       -0.0000000000000000        0.0000000000000000     
   384.16048972914524       -0.0000000000000000        0.0000000000000000     
   384.16048972914524       -0.0000000000000000        0.0000000000000000     
   384.16048972914524       -0.0000000000000000        0.0000000000000000     
   384.16048972914524       -0.0000000000000000        0.0000000000000000     
   384.16048972914524       -0.0000000000000000        0.0000000000000000     
   384.16048972914524       -0.0000000000000000        0.0000000000000000     
   384.16048972914524       -0.0000000000000000        0.0000000000000000     
   384.16048972914524       -0.0000000000000000        0.0000000000000000     
   384.16048972914524       -0.0000000000000000        0.0000000000000000     
   384.16048972914524       -0.0000000000000000        0.0000000000000000     
   384.16048972914524       -0.0000000000000000        0.0000000000000000     
   384.16048972914524       -0.0000000000000000        0.0000000000000000     
   384.16048972914524       -0.0000000000000000        0.0000000000000000     
   384.16048972914524       -0.0000000000000000        0.0000000000000000     
   384.16048972914524       -0.0000000000000000        0.0000000000000000     
   384.16048972914524       -0.0000000000000000        0.0000000000000000     
   384.16048972914524       -0.0000000000000000        0.0000000000000000     
   384.16048972914524       -0.0000000000000000        0.0000000000000000     
   384.16048972914524       -0.0000000000000000        0.0000000000000000     
   384.16048972914524       -0.0000000000000000        0.0000000000000000     
   384.16048972914524       -0.0000000000000000        0.0000000000000000     
   384.16048972914524       -0.0000000000000000        0.0000000000000000     
   384.16048972914524       -0.0000000000000000        0.0000000000000000     
   384.16048972914524       -0.0000000000000000        0.0000000000000000     
   384.16048972914524       -0.0000000000000000        0.0000000000000000     
   384.16048972914524       -0.0000000000000000        0.0000000000000000     
   384.16048972914524       -0.0000000000000000        0.0000000000000000     
   384.16048972914524       -0.0000000000000000        0.0000000000000000     
   384.16048972914524       -0.0000000000000000        0.0000000000000000     
   384.16048972914524       -0.0000000000000000        0.0000000000000000     
   384.16048972914524       -0.0000000000000000        0.0000000000000000     
   384.16048972914524       -0.0000000000000000        0.0000000000000000     
   384.16048972914524       -0.0000000000000000        0.0000000000000000     
   384.16048972914524       -0.0000000000000000        0.0000000000000000     
   384.16048972914524       -0.0000000000000000        0.0000000000000000     
   384.16048972914524       -0.0000000000000000        0.0000000000000000     
   384.16048972914524       -0.0000000000000000       -0.0000000000000000     
   384.16048972914524       -0.0000000000000000       -0.0000000000000000     
   384.16048972914524       -0.0000000000000000       -0.0000000000000000     
   384.16048972914524       -0.0000000000000000       -0.0000000000000000     
   384.16048972914524       -0.0000000000000000       -0.0000000000000000     
   384.16048972914524       -0.0000000000000000       -0.0000000000000000     
   384.16048972914524       -0.0000000000000000       -0.0000000000000000     
   384.16048972914524       -0.0000000000000000       -0.0000000000000000     
   384.16048972914524       -0.0000000000000000       -0.0000000000000000     
   384.16048972914524       -0.0000000000000000       -0.0000000000000000     
   384.16048972914524       -0.0000000000000000       -0.0000000000000000     
   384.16048972914524       -0.0000000000000000       -0.0000000000000000     
   384.16048972914524       -0.0000000000000000       -0.0000000000000000     
   384.16048972914524       -0.0000000000000000       -0.0000000000000000     
   384.16048972914524       -0.0000000000000000       -0.0000000000000000     
   384.16048972914524       -0.0000000000000000       -0.0000000000000000     
   384.16048972914524       -0.0000000000000000       -0.0000000000000000     
   384.16048972914524       -0.0000000000000000       -0.0000000000000000     
   384.16048972914524       -0.0000000000000000       -0.0000000000000000     
   384.16048972914524       -0.0000000000000000       -0.0000000000000000     
   384.16048972914524       -0.0000000000000000       -0.0000000000000000     
   384.16048972914524       -0.0000000000000000       -0.0000000000000000     
   384.16048972914524       -0.0000000000000000       -0.0000000000000000     
   384.16048972914524       -0.0000000000000000       -0.0000000000000000     
   384.16048972914524       -0.0000000000000000       -0.0000000000000000     
   384.16048972914524       -0.0000000000000000       -0.0000000000000000     
   384.16048972914524       -0.0000000000000000       -0.0000000000000000     
   384.16048972914524       -0.0000000000000000       -0.0000000000000000     
   384.16048972914524       -0.0000000000000000       -0.0000000000000000     
   384.16048972914524       -0.0000000000000000       -0.0000000000000000     
   384.16048972914524       -0.0000000000000000       -0.0000000000000000     
   384.16048972914524       -0.0000000000000000       -0.0000000000000000     
   384.16048972914524       -0.0000000000000000       -0.0000000000000000     
   384.16048972914524       -0.0000000000000000       -0.0000000000000000     
   384.16048972914524       -0.0000000000000000       -0.0000000000000000     
   384.16048972914524       -0.0000000000000000       -0.0000000000000000     
   384.16048972914524       -0.0000000000000000       -0.0000000000000000     
   384.16048972914524       -0.0000000000000000       -0.0000000000000000     
   384.16048972914524       -0.0000000000000000       -0.0000000000000000     
   384.16048972914524       -0.0000000000000000       -0.0000000000000000     
   384.16048972914524       -0.0000000000000000       -0.0000000000000000     
   384.16048972914524       -0.0000000000000000       -0.0000000000000000     
   384.16048972914524       -0.0000000000000000       -0.0000000000000000     
   384.16048972914524       -0.0000000000000000       -0.0000000000000000     
   384.16048972914524       -0.0000000000000000       -0.0000000000000000     
   384.16048972914524       -0.0000000000000000       -0.0000000000000000     
   384.16048972914524       -0.0000000000000000       -0.0000000000000000     
   384.16048972914524       -0.0000000000000000       -0.0000000000000000     
   384.16048972914524       -0.0000000000000000       -0.0000000000000000     
   384.16048972914524       -0.0000000000000000       -0.0000000000000000     
   384.16048972914524        0.0000000000000000       -0.0000000000000000     
   384.16048972914524        0.0000000000000000       -0.0000000000000000     
   384.16048972914524        0.0000000000000000       -0.0000000000000000     
   384.16048972914524        0.0000000000000000       -0.0000000000000000     
   384.16048972914524        0.0000000000000000       -0.0000000000000000     
   384.16048972914524        0.0000000000000000       -0.0000000000000000     
   384.16048972914524        0.0000000000000000       -0.0000000000000000     
   384.16048972914524        0.0000000000000000       -0.0000000000000000     
   384.16048972914524        0.0000000000000000       -0.0000000000000000     
   384.16048972914524        0.0000000000000000       -0.0000000000000000     
   384.16048972914524        0.0000000000000000       -0.0000000000000000     
   384.16048972914524        0.0000000000000000       -0.0000000000000000     
   384.16048972914524        0.0000000000000000       -0.0000000000000000     
   384.16048972914524        0.0000000000000000       -0.0000000000000000     
   384.16048972914524        0.0000000000000000       -0.0000000000000000     
   384.16048972914524        0.0000000000000000       -0.0000000000000000     
   384.16048972914524        0.0000000000000000       -0.0000000000000000     
   384.16048972914524        0.0000000000000000       -0.0000000000000000     
   384.16048972914524        0.0000000000000000       -0.0000000000000000     
   384.16048972914524        0.0000000000000000       -0.0000000000000000     
   384.16048972914524        0.0000000000000000       -0.0000000000000000     
   384.16048972914524        0.0000000000000000       -0.0000000000000000     
   384.16048972914524        0.0000000000000000       -0.0000000000000000     
   384.16048972914524        0.0000000000000000       -0.0000000000000000     
   384.16048972914524        0.0000000000000000       -0.0000000000000000     
   384.16048972914524        0.0000000000000000       -0.0000000000000000     
   384.16048972914524        0.0000000000000000       -0.0000000000000000     
   384.16048972914524        0.0000000000000000       -0.0000000000000000     
   384.16048972914524        0.0000000000000000       -0.0000000000000000     
   384.16048972914524        0.0000000000000000       -0.0000000000000000     
   384.16048972914524        0.0000000000000000       -0.0000000000000000     
   384.16048972914524        0.0000000000000000       -0.0000000000000000     
   384.16048972914524        0.0000000000000000       -0.0000000000000000     
   384.16048972914524        0.0000000000000000       -0.0000000000000000     
   384.16048972914524        0.0000000000000000       -0.0000000000000000     
   384.16048972914524        0.0000000000000000       -0.0000000000000000     
   384.16048972914524        0.0000000000000000       -0.0000000000000000     
   384.16048972914524        0.0000000000000000       -0.0000000000000000     
   384.16048972914524        0.0000000000000000       -0.0000000000000000     
   384.16048972914524        0.0000000000000000       -0.0000000000000000     
   384.16048972914524        0.0000000000000000       -0.0000000000000000     
   384.16048972914524        0.0000000000000000       -0.0000000000000000     
   384.16048972914524        0.0000000000000000       -0.0000000000000000     
   384.16048972914524        0.0000000000000000       -0.0000000000000000     
   384.16048972914524        0.0000000000000000       -0.0000000000000000     
   384.16048972914524        0.0000000000000000       -0.0000000000000000     
   384.16048972914524        0.0000000000000000       -0.0000000000000000     
   384.16048972914524        0.0000000000000000       -0.0000000000000000     
   384.16048972914524        0.0000000000000000       -0.0000000000000000     
   384.16048972914524        0.0000000000000000       -0.0000000000000000     
   384.16048972914524        0.0000000000000000        0.0000000000000000     
   355.96646719671298        11.186696900636468        0.0000000000000000     
   357.81823403485339        11.239342343030843       0.35321056262441225     
   359.70279030006213        11.281809494579806       0.70979129037060185     
   361.61908882916913        11.313902358961236        1.0694786521668396     
   363.56605558139188        11.335429920911116        1.4319978163282137     
   365.54258844539771        11.346206740424941        1.7970626043888058     
   367.54755600112702        11.346053559310663        2.1643754713569368     
   369.57979623914588        11.334797919294417        2.5336275132499773     
   371.63811524091648        11.312274790857485        2.9044985027803545     
   373.72128582404002        11.278327211955576        3.2766569540837196     
   375.82804615723626        11.232806935738711        3.6497602174033625     
   377.95709835056942        11.175575086350413        4.0234546046714605     
   380.10710702722207        11.106502821838259        4.3973755469570142     
   382.27669788393655        11.025472003152416        4.7711477847815358     
   384.46445624808518        10.932375868143826        5.1443855923356505     
   386.66892564021191        10.827119709399049        5.5166930366619633     
   388.88860635176690        10.709621554662451        5.8876642729001123     
   391.12195404865685        10.579812848498818        6.2568838767176453     
   393.36737841213227        10.437639133739584        6.6239272150736701     
   395.62324182942911        10.283060731133528        6.9883608564791215     
   397.88785814746376        10.116053415487769        7.3497430219263897     
   400.15949150372938        9.9366090864371763        7.7076240776594220     
   402.43635524937821        9.7447364318208169        8.0615470709420354     
   404.71661098023719        9.5404615814723215        8.4110483099535216     
   406.99836769223782        9.3238287490490421        8.7556579888960382     
   409.27968107838552        9.0949008593329932        9.0949008593339347     
   411.55855298497994        8.8537601582370193        9.4282969487003552     
   413.83293104526405        8.6005088025431746        9.7553623267975524     
   416.10070850906413        8.3352694261906262        10.075609920983508     
   418.35972428723875        8.0581856797186493        10.388550380576238     
   420.60776322986948        7.7694227392599924        10.693692990816471     
   422.84255665711322        7.4691677812743311        10.990546636508878     
   425.06178316145036        7.1576304190138638        11.278620815209266     
   427.26306969971222        6.8350430965273254        11.557426699540343     
   429.44399299273363        6.5016614358388756        11.826478247900608     
   431.60208124975748        6.1577645327888479        12.085293362480568     
   433.73481623377296        5.8036551968983092        12.333395093117254     
   435.83963568283684        5.4396601305241132        12.570312885104066     
   437.91393610105808        5.0661300425095046        12.795583868629370     
   439.95507593133789        4.6834396915126684        13.008754187046318     
   441.96037912014293        4.2919878542162744        13.209380360681292     
   443.92713908254518        3.8921972136895233        13.397030682372607     
   445.85262307348540        3.4845141632946719        13.571286640398712     
   447.73407696872817        3.0694085217066132        13.731744363911533     
   449.56873045625684        2.6473731548498955        13.878016085440787     
   451.35380263594686        2.2189235008559711        14.009731614485888     
   453.08650802224514        1.7845969945064006        14.126539815669821     
   454.76406294129413        1.3449523880571412        14.228110084401420     
   456.38369231050649       0.90056896583541846        14.314133812487148     
   457.94263678502813       0.45204565056418822        14.384325835658322     
   459.43816025185089       -1.4931000485085610E-012   14.438425854543414     
   460.86755764859981      -0.45493290684867732        14.476199820226478     
   462.22816308023187      -0.91210169386009643        14.497441275199936     
   463.51735820311336       -1.3708400215059571        14.501972640252454     
   464.73258084219367       -1.8304680283722377        14.489646437637347     
   465.87133380333853       -2.2902938779192801        14.460346440753176     
   466.93119383936141       -2.7496154069237626        14.413988740542500     
   467.90982072492642       -3.2077218710894386        14.350522718883498     
   468.80496639236861       -3.6638957823270761        14.269931919418919     
   469.61448407760588       -4.1174148312129413        14.172234806541171     
   470.33633742276555       -4.5675538871496997        14.057485403635519     
   470.96860947996061       -5.0135870677861867        13.925773802176876     
   471.50951155886492       -5.4547898683163778        13.777226533880235     
   471.95739185940323       -5.8904413403860332        13.612006798819603     
   472.31074383001987       -6.3198263095019822        13.430314543251967     
   472.56821419166920       -6.7422376190769127        13.232386381807984     
   472.72861056788082       -7.1569783885649700        13.018495359731999     
   472.79090866206764       -7.5633642725636516        12.788950551964668     
   472.75425892461612       -7.9607257072862492        12.544096497049834     
   472.61799265430028       -8.3484101304582783        12.284312465104346     
   472.38162748114962       -8.7257841604695727        12.010011560400404     
   472.04487218109978       -9.0922357205296613        11.721639660461987     
   471.60763077652661       -9.4471760936334270        11.419674194953162     
   471.07000588111231       -9.7900418943517717        11.104622769021312     
   470.43230125235846       -10.120296943819831        10.777021637134357     
   469.69502352042866       -10.437434034803985        10.437434034800743     
   468.85888306780424       -10.740976574385506        10.086448376866256     
   467.92479404043041       -11.030480092599619        9.7246763323247301     
   466.89387347754842       -11.305533606306597        9.3527507867434032     
   465.76743955417089       -11.565760828637405        8.9713237044711995     
   464.54700893710736       -11.810821215539304        8.5810639037542895     
   463.23429326248839       -12.040410842233326        8.1826547587138005     
   461.83119474978525       -12.254263103770445        7.7767918428330560     
   460.33980097431930       -12.452149235320618        7.3641805291459121     
   458.76237882706369       -12.633878649329525        6.9455335627049584     
   457.10136769713296       -12.799299088213896        6.5215686211329853     
   455.35937191861029       -12.948296592817798        6.0930058791195405     
   453.53915252920967       -13.080795288398466        5.6605655926152858     
   451.64361839364665       -13.196756991432540        5.2249657182025100     
   449.67581674941994       -13.296180642010940        4.7869195826841286     
   447.63892323693113       -13.379101568005563        4.3471336173428110     
   445.53623147943506       -13.445590588524409        3.9063051705854881     
   443.37114228120413       -13.495752965409023        3.4651204118176362     
   441.14715251442908       -13.529727212652773        3.0242523383993878     
   438.86784376680504       -13.547683774619582        2.5843588964368953     
   436.53687082240839       -13.549823584808463        2.1460812249733592     
   434.15795004839720       -13.536376517632329        1.7100420318822545     
   431.73484775925812       -13.507599746253582        1.2768441084484363     
   429.27136862880917       -13.463776019940962       0.84706898826951404     
   426.77134421800162       -13.405211874681578       0.42127575473848539     
   424.23862168375217       -13.332235790899071       -2.7574144309997532E-012
   421.67705273068083       -13.245196312099402      -0.41624706310321846     
   419.09048286374656       -13.144460138093548      -0.82697933581980188     
   416.48274099545546       -13.030410206141052       -1.2317364161656947     
   413.85762945662145       -12.903443772928286       -1.6300840316511538     
   411.21891445466360       -12.763970509752300       -2.0216143255088497     
   408.57031701819596       -12.612410622636791       -2.4059460008406628     
   405.91550446129105       -12.449193008374840       -2.7827243280727028     
   403.25808239533319       -12.274753456686824       -3.1516210219530074     
   400.60158731090127       -12.089532907815524       -3.5123339950676682     
   397.94947974670572       -11.893975773968565       -3.8645869954824059     
   395.30513805728947       -11.688528332073775       -4.2081291366369875     
   392.67185278608019       -11.473637194351021       -4.5427343280299493     
   390.05282164546043       -11.249747862235449       -4.8682006155327722     
   387.45114510088445       -11.017303368225953       -5.1843494403697372     
   384.86982255172813       -10.776743009288611       -5.4910248258969521     
   382.31174909755191       -10.528501174528632       -5.7880925013174487     
   379.77971287481330       -10.273006268964892       -6.0754389713856245     
   377.27639294578938       -10.010679734405539       -6.3529705409913078     
   374.80435771858902       -9.7419351676383439       -6.6206123032793567     
   372.36606387463439       -9.4671775354202925       -6.8783070996634157     
   369.96385577788743       -9.1868024850812198       -7.1260144597408566     
   367.59996533837210       -8.9011957489489895       -7.3637095287187462     
   365.27651230119079       -8.6107326402603448       -7.5913819895259884     
   362.99550493123382       -8.3157776377423573       -7.8090349863234207     
   360.75884106312679       -8.0166840556346486       -8.0166840556387982     
   358.56830948561282       -7.7137937955702780       -8.2143560708550876     
   356.42559162952193       -7.4074371764419880       -8.4020882052750139     
   354.33226352869457       -7.0979328381474556       -8.5799269184784386     
   352.28979802369281       -6.7855877149293979       -8.7479269701879936     
   350.29956717880270       -6.4706970739000189       -8.9061504653667498     
   348.36284488370234       -6.1535446142607473       -9.0546659337946043     
   346.48080961219682       -5.8344026226936441       -9.1935474469105412     
   344.65454731158638       -5.5135321804049893       -9.3228737742696861     
   342.88505439751208       -5.1911834173419251       -9.4427275815486098     
   341.17324083049107       -4.8675958091732481       -9.5531946716428635     
   339.51993325178671       -4.5429985127235035       -9.6543632700367805     
   337.92587815774056       -4.2176107356693038       -9.7463233552900359     
   336.39174509320094       -3.8916421364464027       -9.8291660351765557     
   334.91812984620094       -3.5652932504699404       -9.9029829687310453     
   333.50555762755829       -3.2387559389369662       -9.9678658342046944     
   332.15448622056067       -2.9122138566545956       -10.023905842704975     
   330.86530908737217       -2.5858429355183321       -10.071193297093146     
   329.63835842022144       -2.2598118804482641       -10.109817195536554     
   328.47390812681243       -1.9342826747760762       -10.139864878959218     
   327.37217674072127       -1.6094110922586455       -10.161421721502570     
   326.33333024880778       -1.2853472130751216       -10.174570862996648     
   325.35748482886214      -0.96223594133992674       -10.179392982348951     
   324.44470949184006      -0.64021752183486191       -10.175966110682312     
   323.59502862409488      -0.31942805382723394       -10.164365482992242     
   322.80842442599641        3.1517313514193510E-012  -10.144663427047044     
   322.08483924424621       0.31793731135651226       -10.116929288219264     
   321.42417779602579       0.63425719251429968       -10.081229388912009     
   320.82630928389580       0.94883511250651520       -10.037627021228754     
   320.29106940104811        1.2615482246806649       -9.9861824715270284     
   319.81826222715171        1.5722749069935040       -9.9269530754952111     
   319.40766201558705        1.8808943162419203       -9.8599933023951909     
   319.05901487336837        2.1872859573515235       -9.7853548671215904     
   318.77204033548526        2.4913292687526765       -9.7030868687389447     
   318.54643283577389        2.7929032247910386       -9.6132359541712287     
   318.38186307675250        3.0918859560450405       -9.5158465057324690     
   318.27797930112047        3.3881543883532061       -9.4109608512021161     
   318.23440846784428        3.6815839012915506       -9.2986194951639760     
   318.25075733591950        3.9720480067828206       -9.1788613703419912     
   318.32661345903279        4.2594180484659141       -9.0517241076802435     
   318.46154609442573        4.5435629224043534       -8.9172443239269317     
   318.65510702931681        4.8243488196660680       -8.7754579254938232     
   318.90683132824415        5.1016389912636377       -8.6264004273721984     
   319.21623800467199        5.3752935359024168       -8.4701072858950504     
   319.58283062015130        5.6451692109448537       -8.3066142441417732     
   320.00609781424083        5.9111192669604851       -8.1359576887872151     
   320.48551376829204        6.1729933061940265       -7.9581750172007375     
   321.02053860606816        6.4306371652463961       -7.7733050136039488     
   321.61061873401621        6.6838928222269054       -7.5813882330972930     
   322.25518712384121        6.9325983285971571       -7.3824673923670820     
   322.95366353984781        7.1765877658900337       -7.1765877658848352     
   323.70545471330712        7.4156912274482849       -6.9637975864112924     