 VARIABLES = "x_1", "x_2", "x_3"
 ZONE F = POINT , I =         201  , J =         101
   44.208789594792655        0.0000000000000000        0.0000000000000000     
   44.068399946537504        0.0000000000000000        0.0000000000000000     
   43.918811233021934        0.0000000000000000        0.0000000000000000     
   43.760902105450057        0.0000000000000000        0.0000000000000000     
   43.595574922939932        0.0000000000000000        0.0000000000000000     
   43.423747148155400        0.0000000000000000        0.0000000000000000     
   43.246343197690379        0.0000000000000000        0.0000000000000000     
   43.064286852231284        0.0000000000000000        0.0000000000000000     
   42.878494307215668        0.0000000000000000        0.0000000000000000     
   42.689867920803799        0.0000000000000000        0.0000000000000000     
   42.499290693331062        0.0000000000000000        0.0000000000000000     
   42.307621491674553        0.0000000000000000        0.0000000000000000     
   42.115691013619923        0.0000000000000000        0.0000000000000000     
   41.924298471642800        0.0000000000000000        0.0000000000000000     
   41.734208962647223        0.0000000000000000        0.0000000000000000     
   41.546151480117274        0.0000000000000000        0.0000000000000000     
   41.360817517707289        0.0000000000000000        0.0000000000000000     
   41.178860208310084        0.0000000000000000        0.0000000000000000     
   41.000893939830860        0.0000000000000000        0.0000000000000000     
   40.827494387954985        0.0000000000000000        0.0000000000000000     
   40.659198906817501        0.0000000000000000        0.0000000000000000     
   40.496507220350942        0.0000000000000000        0.0000000000000000     
   40.339882359913375        0.0000000000000000        0.0000000000000000     
   40.189751797316134        0.0000000000000000        0.0000000000000000     
   40.046508726343106        0.0000000000000000        0.0000000000000000     
   39.910513450081893        0.0000000000000000        0.0000000000000000     
   39.782094835703532        0.0000000000000000        0.0000000000000000     
   39.661551802597906        0.0000000000000000        0.0000000000000000     
   39.549154813893821        0.0000000000000000        0.0000000000000000     
   39.445147345288945        0.0000000000000000        0.0000000000000000     
   39.349747308733001        0.0000000000000000        0.0000000000000000     
   39.263148411817106        0.0000000000000000        0.0000000000000000     
   39.185521436705521        0.0000000000000000        0.0000000000000000     
   39.117015425103325        0.0000000000000000        0.0000000000000000     
   39.057758758093108        0.0000000000000000        0.0000000000000000     
   39.007860121712845        0.0000000000000000        0.0000000000000000     
   38.967409350909051        0.0000000000000000        0.0000000000000000     
   38.936478146012917        0.0000000000000000        0.0000000000000000     
   38.915120657181710        0.0000000000000000        0.0000000000000000     
   38.903373933358836        0.0000000000000000        0.0000000000000000     
   38.901258233265118        0.0000000000000000        0.0000000000000000     
   38.908777196779106        0.0000000000000000        0.0000000000000000     
   38.925917875829057        0.0000000000000000        0.0000000000000000     
   38.952650624640434        0.0000000000000000        0.0000000000000000     
   38.988928849896290        0.0000000000000000        0.0000000000000000     
   39.034688622109378        0.0000000000000000        0.0000000000000000     
   39.089848150309948        0.0000000000000000        0.0000000000000000     
   39.154307123058196        0.0000000000000000        0.0000000000000000     
   39.227945919830631        0.0000000000000000        0.0000000000000000     
   39.310624698038922        0.0000000000000000        0.0000000000000000     
   39.402182362353784       -0.0000000000000000        0.0000000000000000     
   39.502435424655474       -0.0000000000000000        0.0000000000000000     
   39.611176764846512       -0.0000000000000000        0.0000000000000000     
   39.728174304967617       -0.0000000000000000        0.0000000000000000     
   39.853169611573826       -0.0000000000000000        0.0000000000000000     
   39.985876444167182       -0.0000000000000000        0.0000000000000000     
   40.125979270650205       -0.0000000000000000        0.0000000000000000     
   40.273131774249279       -0.0000000000000000        0.0000000000000000     
   40.426955380137045       -0.0000000000000000        0.0000000000000000     
   40.587037834012698       -0.0000000000000000        0.0000000000000000     
   40.752931869116395       -0.0000000000000000        0.0000000000000000     
   40.924154002463716       -0.0000000000000000        0.0000000000000000     
   41.100183505372463       -0.0000000000000000        0.0000000000000000     
   41.280461597461638       -0.0000000000000000        0.0000000000000000     
   41.464390917046089       -0.0000000000000000        0.0000000000000000     
   41.651335324011256       -0.0000000000000000        0.0000000000000000     
   41.840620093575680       -0.0000000000000000        0.0000000000000000     
   42.031532560554254       -0.0000000000000000        0.0000000000000000     
   42.223323273519100       -0.0000000000000000        0.0000000000000000     
   42.415207716304273       -0.0000000000000000        0.0000000000000000     
   42.606368650303807       -0.0000000000000000        0.0000000000000000     
   42.795959124686838       -0.0000000000000000        0.0000000000000000     
   42.983106192753837       -0.0000000000000000        0.0000000000000000     
   43.166915361018845       -0.0000000000000000        0.0000000000000000     
   43.346475783154332       -0.0000000000000000        0.0000000000000000     
   43.520866193736957       -0.0000000000000000        0.0000000000000000     
   43.689161556999416       -0.0000000000000000        0.0000000000000000     
   43.850440383915632       -0.0000000000000000        0.0000000000000000     
   44.003792647500497       -0.0000000000000000        0.0000000000000000     
   44.148328201961817       -0.0000000000000000        0.0000000000000000     
   44.283185587241128       -0.0000000000000000        0.0000000000000000     
   44.407541077615427       -0.0000000000000000        0.0000000000000000     
   44.520617812588220       -0.0000000000000000        0.0000000000000000     
   44.621694831501031       -0.0000000000000000        0.0000000000000000     
   44.710115821322056       -0.0000000000000000        0.0000000000000000     
   44.785297380968082       -0.0000000000000000        0.0000000000000000     
   44.846736606115591       -0.0000000000000000        0.0000000000000000     
   44.894017806289490       -0.0000000000000000        0.0000000000000000     
   44.926818181239710       -0.0000000000000000        0.0000000000000000     
   44.944912305980296       -0.0000000000000000        0.0000000000000000     
   44.948175302692036       -0.0000000000000000        0.0000000000000000     
   44.936584611902362       -0.0000000000000000        0.0000000000000000     
   44.910220313519943       -0.0000000000000000        0.0000000000000000     
   44.869263988727226       -0.0000000000000000        0.0000000000000000     
   44.813996154572415       -0.0000000000000000        0.0000000000000000     
   44.744792342480316       -0.0000000000000000        0.0000000000000000     
   44.662117928042811       -0.0000000000000000        0.0000000000000000     
   44.566521850796939       -0.0000000000000000        0.0000000000000000     
   44.458629388008426       -0.0000000000000000        0.0000000000000000     
   44.339134164893444       -0.0000000000000000        0.0000000000000000     
   44.208789594791774       -0.0000000000000000       -0.0000000000000000     
   44.068399946536545       -0.0000000000000000       -0.0000000000000000     
   43.918811233020932       -0.0000000000000000       -0.0000000000000000     
   43.760902105448999       -0.0000000000000000       -0.0000000000000000     
   43.595574922938823       -0.0000000000000000       -0.0000000000000000     
   43.423747148154249       -0.0000000000000000       -0.0000000000000000     
   43.246343197689193       -0.0000000000000000       -0.0000000000000000     
   43.064286852230076       -0.0000000000000000       -0.0000000000000000     
   42.878494307214417       -0.0000000000000000       -0.0000000000000000     
   42.689867920802534       -0.0000000000000000       -0.0000000000000000     
   42.499290693329804       -0.0000000000000000       -0.0000000000000000     
   42.307621491673295       -0.0000000000000000       -0.0000000000000000     
   42.115691013618651       -0.0000000000000000       -0.0000000000000000     
   41.924298471641535       -0.0000000000000000       -0.0000000000000000     
   41.734208962645972       -0.0000000000000000       -0.0000000000000000     
   41.546151480116038       -0.0000000000000000       -0.0000000000000000     
   41.360817517706074       -0.0000000000000000       -0.0000000000000000     
   41.178860208308905       -0.0000000000000000       -0.0000000000000000     
   41.000893939829709       -0.0000000000000000       -0.0000000000000000     
   40.827494387953848       -0.0000000000000000       -0.0000000000000000     
   40.659198906816407       -0.0000000000000000       -0.0000000000000000     
   40.496507220349891       -0.0000000000000000       -0.0000000000000000     
   40.339882359912366       -0.0000000000000000       -0.0000000000000000     
   40.189751797315168       -0.0000000000000000       -0.0000000000000000     
   40.046508726342182       -0.0000000000000000       -0.0000000000000000     
   39.910513450081019       -0.0000000000000000       -0.0000000000000000     
   39.782094835702722       -0.0000000000000000       -0.0000000000000000     
   39.661551802597138       -0.0000000000000000       -0.0000000000000000     
   39.549154813893118       -0.0000000000000000       -0.0000000000000000     
   39.445147345288291       -0.0000000000000000       -0.0000000000000000     
   39.349747308732397       -0.0000000000000000       -0.0000000000000000     
   39.263148411816559       -0.0000000000000000       -0.0000000000000000     
   39.185521436705052       -0.0000000000000000       -0.0000000000000000     
   39.117015425102899       -0.0000000000000000       -0.0000000000000000     
   39.057758758092753       -0.0000000000000000       -0.0000000000000000     
   39.007860121712547       -0.0000000000000000       -0.0000000000000000     
   38.967409350908817       -0.0000000000000000       -0.0000000000000000     
   38.936478146012732       -0.0000000000000000       -0.0000000000000000     
   38.915120657181603       -0.0000000000000000       -0.0000000000000000     
   38.903373933358793       -0.0000000000000000       -0.0000000000000000     
   38.901258233265125       -0.0000000000000000       -0.0000000000000000     
   38.908777196779191       -0.0000000000000000       -0.0000000000000000     
   38.925917875829207       -0.0000000000000000       -0.0000000000000000     
   38.952650624640647       -0.0000000000000000       -0.0000000000000000     
   38.988928849896553       -0.0000000000000000       -0.0000000000000000     
   39.034688622109712       -0.0000000000000000       -0.0000000000000000     
   39.089848150310345       -0.0000000000000000       -0.0000000000000000     
   39.154307123058651       -0.0000000000000000       -0.0000000000000000     
   39.227945919831143       -0.0000000000000000       -0.0000000000000000     
   39.310624698039490       -0.0000000000000000       -0.0000000000000000     
   39.402182362354417        0.0000000000000000       -0.0000000000000000     
   39.502435424656170        0.0000000000000000       -0.0000000000000000     
   39.611176764847244        0.0000000000000000       -0.0000000000000000     
   39.728174304968420        0.0000000000000000       -0.0000000000000000     
   39.853169611574678        0.0000000000000000       -0.0000000000000000     
   39.985876444168078        0.0000000000000000       -0.0000000000000000     
   40.125979270651143        0.0000000000000000       -0.0000000000000000     
   40.273131774250281        0.0000000000000000       -0.0000000000000000     
   40.426955380138075        0.0000000000000000       -0.0000000000000000     
   40.587037834013785        0.0000000000000000       -0.0000000000000000     
   40.752931869117518        0.0000000000000000       -0.0000000000000000     
   40.924154002464853        0.0000000000000000       -0.0000000000000000     
   41.100183505373636        0.0000000000000000       -0.0000000000000000     
   41.280461597462846        0.0000000000000000       -0.0000000000000000     
   41.464390917047304        0.0000000000000000       -0.0000000000000000     
   41.651335324012500        0.0000000000000000       -0.0000000000000000     
   41.840620093576938        0.0000000000000000       -0.0000000000000000     
   42.031532560555519        0.0000000000000000       -0.0000000000000000     
   42.223323273520386        0.0000000000000000       -0.0000000000000000     
   42.415207716305538        0.0000000000000000       -0.0000000000000000     
   42.606368650305050        0.0000000000000000       -0.0000000000000000     
   42.795959124688082        0.0000000000000000       -0.0000000000000000     
   42.983106192755073        0.0000000000000000       -0.0000000000000000     
   43.166915361020052        0.0000000000000000       -0.0000000000000000     
   43.346475783155505        0.0000000000000000       -0.0000000000000000     
   43.520866193738080        0.0000000000000000       -0.0000000000000000     
   43.689161557000489        0.0000000000000000       -0.0000000000000000     
   43.850440383916656        0.0000000000000000       -0.0000000000000000     
   44.003792647501484        0.0000000000000000       -0.0000000000000000     
   44.148328201962748        0.0000000000000000       -0.0000000000000000     
   44.283185587242002        0.0000000000000000       -0.0000000000000000     
   44.407541077616209        0.0000000000000000       -0.0000000000000000     
   44.520617812588931        0.0000000000000000       -0.0000000000000000     
   44.621694831501642        0.0000000000000000       -0.0000000000000000     
   44.710115821322603        0.0000000000000000       -0.0000000000000000     
   44.785297380968522        0.0000000000000000       -0.0000000000000000     
   44.846736606115954        0.0000000000000000       -0.0000000000000000     
   44.894017806289746        0.0000000000000000       -0.0000000000000000     
   44.926818181239881        0.0000000000000000       -0.0000000000000000     
   44.944912305980367        0.0000000000000000       -0.0000000000000000     
   44.948175302692007        0.0000000000000000       -0.0000000000000000     
   44.936584611902241        0.0000000000000000       -0.0000000000000000     
   44.910220313519730        0.0000000000000000       -0.0000000000000000     
   44.869263988726914        0.0000000000000000       -0.0000000000000000     
   44.813996154571996        0.0000000000000000       -0.0000000000000000     
   44.744792342479805        0.0000000000000000       -0.0000000000000000     
   44.662117928042221        0.0000000000000000       -0.0000000000000000     
   44.566521850796256        0.0000000000000000       -0.0000000000000000     
   44.458629388007665        0.0000000000000000       -0.0000000000000000     
   44.339134164892620        0.0000000000000000       -0.0000000000000000     
   44.208789594790886        0.0000000000000000        0.0000000000000000     
   51.280746574487857        1.6115623847516294        0.0000000000000000     
   51.112740137842636        1.6054899662928583        5.0454554810653564E-002
   50.928575874647372        1.5973367634116058       0.10049591096206967     
   50.729469292724893        1.5871625144516310       0.15003103022017852     
   50.516642128148000        1.5750311336619627       0.19897270414879811     
   50.291311614894610        1.5610099530576669       0.24723968775608579     
   50.054680975914316        1.5451690045932203       0.29475675177808403     
   49.807931165647432        1.5275803501320875       0.34145466300784438     
   49.552213858152264        1.5083174644112491       0.38727010244133719     
   49.288645644921139        1.4874546741211905       0.43214553100365655     
   49.018303382361232        1.4650666543953721       0.47602901230713812     
   48.742220610622127        1.4412279824526903       0.51887400134450812     
   48.461384952583963        1.4160127468690480       0.56063910730009459     
   48.176736393818651        1.3894942099624683       0.60128783782986261     
   47.889166340553047        1.3617445200425993       0.64078833126861634     
   47.599517352402735        1.3328344697748475       0.67911308231374989     
   47.308583449216023        1.3028332966123919       0.71623866584436180     
   47.017110896115504        1.2718085211246781       0.75214546268899440     
   46.725799377151617        1.2398258190674118       0.78681739037372378     
   46.435303475363852        1.2069489231667856       0.82024164117706466     
   46.146234385036294        1.1732395508023650       0.85240842919589854     
   45.859161790163810        1.1387573540443872       0.88331074758938055     
   45.574615851327110        1.1035598888113924       0.91294413671425412     
   45.293089251078484        1.0677026002454149       0.94130646349096969     
   45.015039255410279        1.0312388217402921       0.96839771203981329     
   44.740889755798030       0.99421978539266342       0.99421978539276634     
   44.471033262615620       0.95669464196641074        1.0187763179125886     
   44.205832826377559       0.91871048876346584        1.0420724979278795     
   43.945623868267866       0.88031240407288780        1.0641149000141250     
   43.690715905782092       0.84154348712330918        1.0849113263088210     
   43.441394163068026       0.80244490269010904        1.1044706562370605     
   43.197921058744711       0.76305592970777947        1.1228027040366160     
   42.960537566654004       0.72341401341055178        1.1399180835031768     
   42.729464447205494       0.68355482067159434        1.1558280794225293     
   42.504903348767414       0.64351229833459511        1.1705445252131426     
   42.287037779984317       0.60331873443308570        1.1840796863666576     
   42.076033955016179       0.56300482227436421        1.1964461493424008     
   41.872041514544648       0.52259972742834337        1.2076567156432674     
   41.675194126019846       0.48213115770885528        1.2177243008722978     
   41.485609967074069       0.44162543626779566        1.2266618386409307     
   41.303392096340374       0.40110757794249047        1.2344821892701905     
   41.128628716124062       0.36060136900529322        1.2411980532944400     
   40.961393331514174       0.32012945046287239        1.2468218898433441     
   40.801744810623163       0.27971340504192282        1.2513658400411718     
   40.649727350731688       0.23937384797888120        1.2548416556233939     
   40.505370355219668       0.19913052170420237        1.2572606330286977     
   40.368688226307853       0.15900239447716658        1.2586335532800745     
   40.239680078837324       0.11900776298516376        1.2589706280214608     
   40.118329380600777        7.9164358871857493E-002   1.2582814521265795     
   40.004603525123734        3.9489459101328665E-002   1.2565749633437902     
   39.898453343296723       -1.2966354947450820E-013   1.2538594094847584     
   39.799812560893479       -3.9287305256937480E-002   1.2501423237049676     
   39.708597209788316       -7.8355846027429496E-002   1.2454305084598467     
   39.624705001617265      -0.11718899086575646        1.2397300287505575     
   39.548014673719130      -0.15576996197393889        1.2330462152970214     
   39.478385318445454      -0.19408170806908329        1.2253836782909913     
   39.415655708338463      -0.23210677641497490        1.2167463323869225     
   39.359643631235357      -0.26982718490198587        1.2071374335809311     
   39.310145251047089      -0.30722429520388445        1.1965596286055948     
   39.266934511755004      -0.34427868819363183        1.1850150174280036     
   39.229762604033652      -0.38097004296087977        1.1725052293771527     
   39.198357515794719      -0.41727702093914149        1.1590315133413227     
   39.172423689797739      -0.45317715681718318        1.1445948423632248     
   39.151641813212500      -0.48864675807267671        1.1291960328172159     
   39.135668765562777      -0.52366081512126372        1.1128358781759780     
   39.124137752728601      -0.55819292421433497        1.0955152971613302     
   39.116658655523871      -0.59221522533647697        1.0772354958237385     
   39.112818621674371      -0.62569835744002844        1.0579981428071159     
   39.112182929667711      -0.65861143339998307        1.0378055567305864     
   39.114296151798250      -0.69092203706740662        1.0166609042596852     
   39.118683641656062      -0.72259624473308692       0.99456840705068184     
   39.124853368189825      -0.75359867317500318       0.97153355534045305     
   39.132298114209227      -0.78389255624380039       0.94756332553025324     
   39.140498051710047      -0.81343985163161348       0.92266639868713551     
   39.148923699676310      -0.84220137906545089       0.89685337647681007     
   39.157039262056600      -0.87013699066404893       0.87013699066377859     
   39.164306334508190      -0.89720577359771592       0.84253230198832707     
   39.170187958404426      -0.92336628450005409       0.81405688397630405     
   39.174152989735411      -0.94857681430970142       0.78473098707810041     
   39.175680739201788      -0.97279568138632777       0.75457767848866708     
   39.174265828389444      -0.99598154987100207       0.72362295308972346     
   39.169423195858570       -1.0180937693751513       0.69189581119386656     
   39.160693176781656       -1.0390927312181819       0.65942829916866563     
   39.147646570941966       -1.0589402356285744       0.62625550958106102     
   39.129889606977031       -1.0775998636160280       0.59241553822496218     
   39.107068706214818       -1.0950373466522294       0.55794939626592155     
   39.078874947721495       -1.1112209269016142       0.52290087673522867     
   39.045048137586058       -1.1261217005527067       0.48731637570230030     
   39.005380390195420       -1.1397139368393612       0.45124466961157977     
   38.959719137339867       -1.1519753656237723       0.41473665144490207     
   38.907969492292430       -1.1628874269423572       0.37784502951493715     
   38.850095910213959       -1.1724354766818881       0.34062399376113556     
   38.786123102864529       -1.1806089435342890       0.30312885535921141     
   38.716136184026595       -1.1874014335401659       0.26541566622602619     
   38.640280041524804       -1.1928107798289269       0.22754082556841188     
   38.558757951458588       -1.1968390365453072       0.18956068096154449     
   38.471829469417230       -1.1994924173612918       0.15153113153582967     
   38.379807651233776       -1.2007811803511050       0.11350724069924514     
   38.283055671538548       -1.2007194622994333        7.5542865435305695E-002
   38.181982921406032       -1.1993250666695805        3.7690308617372249E-002
   38.077040676315093       -1.1966192104374602       -2.4748850313044704E-013
   37.968717432198694       -1.1926262357683939       -3.7479789375787317E-002
   37.857534010464086       -1.1873732930576943       -7.4703195638846615E-002
   37.744038532607519       -1.1808900021661084      -0.11162697076631363     
   37.628801361676544       -1.1732080987623128      -0.14821064990483951     
   37.512410101718523       -1.1643610725519227      -0.18441667681207266     
   37.395464737965590       -1.1543838038497338      -0.22021048786047612     
   37.278572990369931       -1.1433122044692947      -0.25556055591867360     
   37.162345941766930       -1.1311828682954979      -0.29043839617414724     
   37.047393989947103       -1.1180327362074949      -0.32481853657402093     
   36.934323160763789       -1.1038987792663073      -0.35867845603136250     
   36.823731807533910       -1.0888177033071313      -0.39199849387369273     
   36.716207710775485       -1.0728256773101839      -0.42476173420477542     
   36.612325582056911       -1.0559580871910519      -0.45695386892153789     
   36.512644966616669       -1.0382493159719557      -0.48856304308975418     
   36.417708531574839       -1.0197325506839665      -0.51957968625165407     
   36.328040720057331       -1.0004396158169147      -0.54999633303360906     
   36.244146746382185      -0.98040083268376366      -0.57980743616016683     
   36.166511903559979      -0.95964490370095179      -0.60900917467884819     
   36.095601151640444      -0.93819882030355839      -0.63759925987371435     
   36.031858953774545      -0.91608779300965726      -0.66557674100843600     
   35.975709326115414      -0.89333520201534955      -0.69294181270303212     
   35.927556067707087      -0.86996256663307825      -0.71969562542212628     
   35.887783137161428      -0.84598953187260084      -0.74584010024389846     
   35.856755144060315      -0.82143387049783678      -0.77137774879345689     
   35.834817924513253      -0.79631149896544751      -0.79631149896585962     
   35.822299172034164      -0.77063650575452414      -0.82064452683483113     
   35.819509096773395      -0.74442119072396162      -0.84438009494437516     
   35.826741088067642      -0.71767611427856504      -0.86752139701208986     
   35.844272357181069      -0.69041015528106076      -0.89007140893435677     
   35.872364538951452      -0.66263057681024140      -0.91203274587351746     
   35.911264232784461      -0.63434309903146546      -0.93340752512410785     
   35.961203465029605      -0.60555197861152388      -0.95419723439746684     
   36.022400056206713      -0.57626009427278324      -0.97440260512985433     
   36.095057877825326      -0.54646903823966564      -0.99402349040678306     
   36.179366984654123      -0.51617921348216278       -1.0130587471041785     
   36.275503609264739      -0.48538993680518622       -1.0315061218737125     
   36.383630006510174      -0.45409954796787477       -1.0493621406442109     
   36.503894136329841      -0.42230552514289760       -1.0666220013724883     
   36.636429173927660      -0.39000460714117402       -1.0832794698547199     
   36.781352836986272      -0.35719292293161381       -1.0993267785032192     
   36.938766520198321      -0.32386612907711348       -1.1147545281031064     
   37.108754228063759      -0.29001955578602251       -1.1295515926889190     
   37.291381297672906      -0.25564836234070337       -1.1437050278229890     
   37.486692904126265      -0.22074770270979685       -1.1571999827156205     
   37.694712342400670      -0.18531290217557553       -1.1700196168021402     
   37.915439080924834      -0.14933964580948389       -1.1821450215838367     
   38.148846583954274      -0.11282417960371242       -1.1935551487486857     
   38.394879902114425       -7.5763525010405730E-002  -1.2042267458130960     
   38.653453033297033       -3.8155707547878892E-002  -1.2141343007667322     
   38.924446059535320        3.8003777999478154E-013  -1.2232499974571087     
   39.207702069632717        3.8702819448863189E-002  -1.2315436837163343     
   39.503023882261672        7.7950194024571623E-002  -1.2389828545053319     
   39.810170590055257       0.11773750031607746       -1.2455326526256407     
   40.128853951946653       0.15805774590036795       -1.2511558898185327     
   40.458734668704544       0.19890125362238240       -1.2558130913264773     
   40.799418585276975       0.24025533401035809       -1.2594625672217519     
   41.150452873156262       0.28210394789764398       -1.2620605139974310     
   41.511322256430446       0.32442736198955524       -1.2635611500508479     
   41.881445356339903       0.36720180085939158       -1.2639168887500700     
   42.260171240787024       0.41039909967468452       -1.2630785527388992     
   42.646776277032849       0.45398636283109511       -1.2609956329822605     
   43.040461397340557       0.49792563458963807       -1.2576165957572847     
   43.440349898066216       0.54217358874793042       -1.2528892403314213     
   43.845485902015945       0.58668124529537391       -1.2467611094141469     
   44.254833621043879       0.63139372286451423       -1.2391799536028563     
   44.667277560025120       0.67625003654681215       -1.2300942499512251     
   45.081623803604728       0.72118295123388165       -1.2194537734620363     
   45.496602522574769       0.76611890101135283       -1.2072102187492468     
   45.910871826478740       0.81097798520510078       -1.1933178673421156     
   46.323023072286638       0.85567405139072672       -1.1777342941496476     
   46.731587715124263       0.90011487496387999       -1.1604211045167727     
   47.135045755728378       0.94420244367706241       -1.1413446911540663     
   47.531835800574399       0.98783335384045490       -1.1204769980994194     
   47.920366704959861        1.0308993226442613       -1.0977962768794376     
   48.299030717738866        1.0732878183018459       -1.0732878183010686     
   48.666217990458506        1.1148828064839313       -1.0469446419488739     