 VARIABLES = "x_1", "x_2", "x_3"
 ZONE F = POINT , I =         201  , J =         101
   1031.0985684341949        0.0000000000000000        0.0000000000000000     
   1031.0985684341949        0.0000000000000000        0.0000000000000000     
   1031.0985684341949        0.0000000000000000        0.0000000000000000     
   1031.0985684341949        0.0000000000000000        0.0000000000000000     
   1031.0985684341949        0.0000000000000000        0.0000000000000000     
   1031.0985684341949        0.0000000000000000        0.0000000000000000     
   1031.0985684341949        0.0000000000000000        0.0000000000000000     
   1031.0985684341949        0.0000000000000000        0.0000000000000000     
   1031.0985684341949        0.0000000000000000        0.0000000000000000     
   1031.0985684341949        0.0000000000000000        0.0000000000000000     
   1031.0985684341949        0.0000000000000000        0.0000000000000000     
   1031.0985684341949        0.0000000000000000        0.0000000000000000     
   1031.0985684341949        0.0000000000000000        0.0000000000000000     
   1031.0985684341949        0.0000000000000000        0.0000000000000000     
   1031.0985684341949        0.0000000000000000        0.0000000000000000     
   1031.0985684341949        0.0000000000000000        0.0000000000000000     
   1031.0985684341949        0.0000000000000000        0.0000000000000000     
   1031.0985684341949        0.0000000000000000        0.0000000000000000     
   1031.0985684341949        0.0000000000000000        0.0000000000000000     
   1031.0985684341949        0.0000000000000000        0.0000000000000000     
   1031.0985684341949        0.0000000000000000        0.0000000000000000     
   1031.0985684341949        0.0000000000000000        0.0000000000000000     
   1031.0985684341949        0.0000000000000000        0.0000000000000000     
   1031.0985684341949        0.0000000000000000        0.0000000000000000     
   1031.0985684341949        0.0000000000000000        0.0000000000000000     
   1031.0985684341949        0.0000000000000000        0.0000000000000000     
   1031.0985684341949        0.0000000000000000        0.0000000000000000     
   1031.0985684341949        0.0000000000000000        0.0000000000000000     
   1031.0985684341949        0.0000000000000000        0.0000000000000000     
   1031.0985684341949        0.0000000000000000        0.0000000000000000     
   1031.0985684341949        0.0000000000000000        0.0000000000000000     
   1031.0985684341949        0.0000000000000000        0.0000000000000000     
   1031.0985684341949        0.0000000000000000        0.0000000000000000     
   1031.0985684341949        0.0000000000000000        0.0000000000000000     
   1031.0985684341949        0.0000000000000000        0.0000000000000000     
   1031.0985684341949        0.0000000000000000        0.0000000000000000     
   1031.0985684341949        0.0000000000000000        0.0000000000000000     
   1031.0985684341949        0.0000000000000000        0.0000000000000000     
   1031.0985684341949        0.0000000000000000        0.0000000000000000     
   1031.0985684341949        0.0000000000000000        0.0000000000000000     
   1031.0985684341949        0.0000000000000000        0.0000000000000000     
   1031.0985684341949        0.0000000000000000        0.0000000000000000     
   1031.0985684341949        0.0000000000000000        0.0000000000000000     
   1031.0985684341949        0.0000000000000000        0.0000000000000000     
   1031.0985684341949        0.0000000000000000        0.0000000000000000     
   1031.0985684341949        0.0000000000000000        0.0000000000000000     
   1031.0985684341949        0.0000000000000000        0.0000000000000000     
   1031.0985684341949        0.0000000000000000        0.0000000000000000     
   1031.0985684341949        0.0000000000000000        0.0000000000000000     
   1031.0985684341949        0.0000000000000000        0.0000000000000000     
   1031.0985684341949       -0.0000000000000000        0.0000000000000000     
   1031.0985684341949       -0.0000000000000000        0.0000000000000000     
   1031.0985684341949       -0.0000000000000000        0.0000000000000000     
   1031.0985684341949       -0.0000000000000000        0.0000000000000000     
   1031.0985684341949       -0.0000000000000000        0.0000000000000000     
   1031.0985684341949       -0.0000000000000000        0.0000000000000000     
   1031.0985684341949       -0.0000000000000000        0.0000000000000000     
   1031.0985684341949       -0.0000000000000000        0.0000000000000000     
   1031.0985684341949       -0.0000000000000000        0.0000000000000000     
   1031.0985684341949       -0.0000000000000000        0.0000000000000000     
   1031.0985684341949       -0.0000000000000000        0.0000000000000000     
   1031.0985684341949       -0.0000000000000000        0.0000000000000000     
   1031.0985684341949       -0.0000000000000000        0.0000000000000000     
   1031.0985684341949       -0.0000000000000000        0.0000000000000000     
   1031.0985684341949       -0.0000000000000000        0.0000000000000000     
   1031.0985684341949       -0.0000000000000000        0.0000000000000000     
   1031.0985684341949       -0.0000000000000000        0.0000000000000000     
   1031.0985684341949       -0.0000000000000000        0.0000000000000000     
   1031.0985684341949       -0.0000000000000000        0.0000000000000000     
   1031.0985684341949       -0.0000000000000000        0.0000000000000000     
   1031.0985684341949       -0.0000000000000000        0.0000000000000000     
   1031.0985684341949       -0.0000000000000000        0.0000000000000000     
   1031.0985684341949       -0.0000000000000000        0.0000000000000000     
   1031.0985684341949       -0.0000000000000000        0.0000000000000000     
   1031.0985684341949       -0.0000000000000000        0.0000000000000000     
   1031.0985684341949       -0.0000000000000000        0.0000000000000000     
   1031.0985684341949       -0.0000000000000000        0.0000000000000000     
   1031.0985684341949       -0.0000000000000000        0.0000000000000000     
   1031.0985684341949       -0.0000000000000000        0.0000000000000000     
   1031.0985684341949       -0.0000000000000000        0.0000000000000000     
   1031.0985684341949       -0.0000000000000000        0.0000000000000000     
   1031.0985684341949       -0.0000000000000000        0.0000000000000000     
   1031.0985684341949       -0.0000000000000000        0.0000000000000000     
   1031.0985684341949       -0.0000000000000000        0.0000000000000000     
   1031.0985684341949       -0.0000000000000000        0.0000000000000000     
   1031.0985684341949       -0.0000000000000000        0.0000000000000000     
   1031.0985684341949       -0.0000000000000000        0.0000000000000000     
   1031.0985684341949       -0.0000000000000000        0.0000000000000000     
   1031.0985684341949       -0.0000000000000000        0.0000000000000000     
   1031.0985684341949       -0.0000000000000000        0.0000000000000000     
   1031.0985684341949       -0.0000000000000000        0.0000000000000000     
   1031.0985684341949       -0.0000000000000000        0.0000000000000000     
   1031.0985684341949       -0.0000000000000000        0.0000000000000000     
   1031.0985684341949       -0.0000000000000000        0.0000000000000000     
   1031.0985684341949       -0.0000000000000000        0.0000000000000000     
   1031.0985684341949       -0.0000000000000000        0.0000000000000000     
   1031.0985684341949       -0.0000000000000000        0.0000000000000000     
   1031.0985684341949       -0.0000000000000000        0.0000000000000000     
   1031.0985684341949       -0.0000000000000000        0.0000000000000000     
   1031.0985684341949       -0.0000000000000000        0.0000000000000000     
   1031.0985684341949       -0.0000000000000000       -0.0000000000000000     
   1031.0985684341949       -0.0000000000000000       -0.0000000000000000     
   1031.0985684341949       -0.0000000000000000       -0.0000000000000000     
   1031.0985684341949       -0.0000000000000000       -0.0000000000000000     
   1031.0985684341949       -0.0000000000000000       -0.0000000000000000     
   1031.0985684341949       -0.0000000000000000       -0.0000000000000000     
   1031.0985684341949       -0.0000000000000000       -0.0000000000000000     
   1031.0985684341949       -0.0000000000000000       -0.0000000000000000     
   1031.0985684341949       -0.0000000000000000       -0.0000000000000000     
   1031.0985684341949       -0.0000000000000000       -0.0000000000000000     
   1031.0985684341949       -0.0000000000000000       -0.0000000000000000     
   1031.0985684341949       -0.0000000000000000       -0.0000000000000000     
   1031.0985684341949       -0.0000000000000000       -0.0000000000000000     
   1031.0985684341949       -0.0000000000000000       -0.0000000000000000     
   1031.0985684341949       -0.0000000000000000       -0.0000000000000000     
   1031.0985684341949       -0.0000000000000000       -0.0000000000000000     
   1031.0985684341949       -0.0000000000000000       -0.0000000000000000     
   1031.0985684341949       -0.0000000000000000       -0.0000000000000000     
   1031.0985684341949       -0.0000000000000000       -0.0000000000000000     
   1031.0985684341949       -0.0000000000000000       -0.0000000000000000     
   1031.0985684341949       -0.0000000000000000       -0.0000000000000000     
   1031.0985684341949       -0.0000000000000000       -0.0000000000000000     
   1031.0985684341949       -0.0000000000000000       -0.0000000000000000     
   1031.0985684341949       -0.0000000000000000       -0.0000000000000000     
   1031.0985684341949       -0.0000000000000000       -0.0000000000000000     
   1031.0985684341949       -0.0000000000000000       -0.0000000000000000     
   1031.0985684341949       -0.0000000000000000       -0.0000000000000000     
   1031.0985684341949       -0.0000000000000000       -0.0000000000000000     
   1031.0985684341949       -0.0000000000000000       -0.0000000000000000     
   1031.0985684341949       -0.0000000000000000       -0.0000000000000000     
   1031.0985684341949       -0.0000000000000000       -0.0000000000000000     
   1031.0985684341949       -0.0000000000000000       -0.0000000000000000     
   1031.0985684341949       -0.0000000000000000       -0.0000000000000000     
   1031.0985684341949       -0.0000000000000000       -0.0000000000000000     
   1031.0985684341949       -0.0000000000000000       -0.0000000000000000     
   1031.0985684341949       -0.0000000000000000       -0.0000000000000000     
   1031.0985684341949       -0.0000000000000000       -0.0000000000000000     
   1031.0985684341949       -0.0000000000000000       -0.0000000000000000     
   1031.0985684341949       -0.0000000000000000       -0.0000000000000000     
   1031.0985684341949       -0.0000000000000000       -0.0000000000000000     
   1031.0985684341949       -0.0000000000000000       -0.0000000000000000     
   1031.0985684341949       -0.0000000000000000       -0.0000000000000000     
   1031.0985684341949       -0.0000000000000000       -0.0000000000000000     
   1031.0985684341949       -0.0000000000000000       -0.0000000000000000     
   1031.0985684341949       -0.0000000000000000       -0.0000000000000000     
   1031.0985684341949       -0.0000000000000000       -0.0000000000000000     
   1031.0985684341949       -0.0000000000000000       -0.0000000000000000     
   1031.0985684341949       -0.0000000000000000       -0.0000000000000000     
   1031.0985684341949       -0.0000000000000000       -0.0000000000000000     
   1031.0985684341949       -0.0000000000000000       -0.0000000000000000     
   1031.0985684341949        0.0000000000000000       -0.0000000000000000     
   1031.0985684341949        0.0000000000000000       -0.0000000000000000     
   1031.0985684341949        0.0000000000000000       -0.0000000000000000     
   1031.0985684341949        0.0000000000000000       -0.0000000000000000     
   1031.0985684341949        0.0000000000000000       -0.0000000000000000     
   1031.0985684341949        0.0000000000000000       -0.0000000000000000     
   1031.0985684341949        0.0000000000000000       -0.0000000000000000     
   1031.0985684341949        0.0000000000000000       -0.0000000000000000     
   1031.0985684341949        0.0000000000000000       -0.0000000000000000     
   1031.0985684341949        0.0000000000000000       -0.0000000000000000     
   1031.0985684341949        0.0000000000000000       -0.0000000000000000     
   1031.0985684341949        0.0000000000000000       -0.0000000000000000     
   1031.0985684341949        0.0000000000000000       -0.0000000000000000     
   1031.0985684341949        0.0000000000000000       -0.0000000000000000     
   1031.0985684341949        0.0000000000000000       -0.0000000000000000     
   1031.0985684341949        0.0000000000000000       -0.0000000000000000     
   1031.0985684341949        0.0000000000000000       -0.0000000000000000     
   1031.0985684341949        0.0000000000000000       -0.0000000000000000     
   1031.0985684341949        0.0000000000000000       -0.0000000000000000     
   1031.0985684341949        0.0000000000000000       -0.0000000000000000     
   1031.0985684341949        0.0000000000000000       -0.0000000000000000     
   1031.0985684341949        0.0000000000000000       -0.0000000000000000     
   1031.0985684341949        0.0000000000000000       -0.0000000000000000     
   1031.0985684341949        0.0000000000000000       -0.0000000000000000     
   1031.0985684341949        0.0000000000000000       -0.0000000000000000     
   1031.0985684341949        0.0000000000000000       -0.0000000000000000     
   1031.0985684341949        0.0000000000000000       -0.0000000000000000     
   1031.0985684341949        0.0000000000000000       -0.0000000000000000     
   1031.0985684341949        0.0000000000000000       -0.0000000000000000     
   1031.0985684341949        0.0000000000000000       -0.0000000000000000     
   1031.0985684341949        0.0000000000000000       -0.0000000000000000     
   1031.0985684341949        0.0000000000000000       -0.0000000000000000     
   1031.0985684341949        0.0000000000000000       -0.0000000000000000     
   1031.0985684341949        0.0000000000000000       -0.0000000000000000     
   1031.0985684341949        0.0000000000000000       -0.0000000000000000     
   1031.0985684341949        0.0000000000000000       -0.0000000000000000     
   1031.0985684341949        0.0000000000000000       -0.0000000000000000     
   1031.0985684341949        0.0000000000000000       -0.0000000000000000     
   1031.0985684341949        0.0000000000000000       -0.0000000000000000     
   1031.0985684341949        0.0000000000000000       -0.0000000000000000     
   1031.0985684341949        0.0000000000000000       -0.0000000000000000     
   1031.0985684341949        0.0000000000000000       -0.0000000000000000     
   1031.0985684341949        0.0000000000000000       -0.0000000000000000     
   1031.0985684341949        0.0000000000000000       -0.0000000000000000     
   1031.0985684341949        0.0000000000000000       -0.0000000000000000     
   1031.0985684341949        0.0000000000000000       -0.0000000000000000     
   1031.0985684341949        0.0000000000000000       -0.0000000000000000     
   1031.0985684341949        0.0000000000000000       -0.0000000000000000     
   1031.0985684341949        0.0000000000000000       -0.0000000000000000     
   1031.0985684341949        0.0000000000000000       -0.0000000000000000     
   1031.0985684341949        0.0000000000000000        0.0000000000000000     
   986.05634140264715        30.988068918655117        0.0000000000000000     
   986.68168906641256        30.992420822067814       0.97397606208186305     
   987.34919246759534        30.967470351715804        1.9483080928655925     
   988.05808998650298        30.913171069821356        2.9221550161045324     
   988.80758777751521        30.829498366103429        3.8946713663954133     
   989.59686084423276        30.716449813867268        4.8650077125264000     
   990.42505411378033        30.574045526842397        5.8323111073405149     
   991.29128350871474        30.402328514891764        6.7957255648179249     
   992.19463701503355        30.201365036665170        7.7543925649517993     
   993.13417574488699        29.971244947231533        8.7074515868621134     
   994.10893499268616        29.712082038693442        9.6540406704601445     
   995.11792528337446        29.424014371764574        10.593297006843928     
   996.16013341173482        29.107204596276731        11.524357557472564     
   997.23452347168859        28.761840258577156        12.446359702034950     
   998.34003787464496        28.388134093779229        13.358441914797240     
   999.47559835604159        27.986324300839350        14.259744469083119     
   1000.6401069693310        27.556674798451059        15.149410169412924     
   1001.8324470667410        27.099475459772183        16.026585110700978     
   1003.0514842662668        26.615042324033908        16.890419463787559     
   1004.2960674044140        26.103717783119258        17.740068286460438     
   1005.5650294743465        25.565870741245345        18.574692359004299     
   1006.8571885491668        25.001896745935362        19.393459043201794     
   1008.1713486901583        24.412218088524927        20.195543163600359     
   1009.5063008399360        23.797283872511848        20.980127909753129     
   1010.8608237005138        23.157570048126754        21.746405758040176     
   1012.2336845964302        22.493579411577738        22.493579411580068     
   1013.6236403231295        21.805841567500167        23.220862756648597     
   1015.0294379809143        21.094912853226905        23.927481833934692     
   1016.4498157948595        20.361376223581768        24.612675822880639     
   1017.8835039211583        19.605841094989735        25.275698037276324     
   1019.3292252404610        18.828943147792803        25.915816930204990     
   1020.7856961388363        18.031344085757659        26.532317106370733     
   1022.2516272770579        17.213731351862158        27.124500339776038     
   1023.7257243489871        16.376817799550846        27.691686594661075     
   1025.2066888298802        15.521341318755116        28.233215047564862     
   1026.6932187155094        14.648064416081263        28.748445108322397     
   1028.1840092530360        13.757773748679023        29.236757437771047     
   1029.6777536646105        12.851279611414146        29.697554959903265     
   1031.1731438647300        11.929415377081128        30.130263866173156     
   1032.6688711723955        10.993036889505476        30.534334609638293     
   1034.1636270191505        10.043021809499908        30.909242886598598     
   1035.6561036541018        9.0802689137541339        31.254490603379310     
   1037.1449948470267        8.1056973468539937        31.569606825894894     
   1038.6289965906947        7.1202458267426669        31.854148709626802     
   1040.1068078035132        6.1248718040534671        32.107702407648027     
   1041.5771310336227        5.1205505758612100        32.329883954333383     
   1043.0386731655406        4.1082743545163751        32.520340122405521     
   1044.4901461304512        3.0890512923437581        32.678749250982527     
   1045.9302676212019        2.0639044631041119        32.804822042314051     
   1047.3577618130621        1.0338708012341966        32.898302324920039     
   1048.7713600912491       -3.4083380617932142E-012   32.958967780876989     
   1050.1698017862095       -1.0366466302138313        32.986630635034437     
   1051.5518349175909       -2.0749973420454393        32.981138303985972     
   1052.9162169478084       -3.1139711683725451        32.942374002667222     
   1054.2617155460596       -4.1524791748982546        32.870257306505771     
   1055.5871093635883       -5.1894257464798113        32.764744667106434     
   1056.8911888209557       -6.2237099053695664        32.625829879519245     
   1058.1727569080101       -7.2542266594576956        32.453544499206181     
   1059.4306299972009       -8.2798683784977243        32.247958206897636     
   1060.6636386708076       -9.2995261961932378        32.009179119609371     
   1061.8706285626090       -10.312091435924167        31.737354046176307     
   1063.0504612144262       -11.316457057793707        31.432668685749835     
   1064.2020149479360       -12.311519124583258        31.095347767802323     
   1065.3241857520486       -13.296178284111623        30.725655132283151     
   1066.4158881860828       -14.269341265408171        30.323893748677825     
   1067.4760562989004       -15.229922386026587        29.890405672833914     
   1068.5036445640580       -16.176845067746907        29.425571940534130     
   1069.4976288309681       -17.109043357839575        28.929812396919484     
   1070.4570072919560       -18.025463452995794        28.403585460992424     
   1071.3808014650176       -18.925065222964232        27.847387824561803     
   1072.2680571919643       -19.806823730875291        27.261754085127855     
   1073.1178456515538       -20.669730747181188        26.647256312346858     
   1073.9292643870751       -21.512796254092940        26.004503547860164     
   1074.7014383477608       -22.335049937354853        25.334141238422248     
   1075.4335209432461       -23.135542662162742        24.636850602415649     
   1076.1246951101850       -23.913347930005454        23.913347929998025     
   1076.7741743899894       -24.667563313189063        23.164383817287661     
   1077.3812040165035       -25.397311863791142        22.390742335157274     
   1077.9450620122818       -26.101743493788046        21.593240133373342     
   1078.4650602919749       -26.780036323102188        20.772725480987766     
   1078.9405457711621       -27.431397992328542        19.930077244060627     
   1079.3709014787935       -28.055066936921044        19.066203801966790     
   1079.7555476712300       -28.650313619649996        18.182041903715003     
   1080.0939429456769       -29.216441718181432        17.278555465884459     
   1080.3855853506298       -29.752789264679528        16.356734313961947     
   1080.6300134907474       -30.258729734392453        15.417592869040055     
   1080.8268076233730       -30.733673080252888        14.462168782014849     
   1080.9755907437439       -31.177066710605189        13.491521517598056     
   1081.0760296557082       -31.588396407262930        12.506730890634044     
   1081.1278360246006       -31.967187181203947        11.508895557385458     
   1081.1307674087225       -32.313004063324364        10.499131464621360     
   1081.0846282656971       -32.625452827799052        9.4785702595092083     
   1080.9892709297940       -32.904180645733852        8.4483576634741411     
   1080.8445965561514       -33.148876666944290        7.4096518133467262     
   1080.6505560276748       -33.359272527856866        6.3636215732715282     
   1080.4071508202528       -33.535142783702085        5.3114448209933078     
   1080.1144338218126       -33.676305263352852        4.2543067122739702     
   1079.7725101006354       -33.782621345358315        3.1933979273208002     
   1079.3815376182788       -33.853996153930026        2.1299129032239557     
   1078.9417278823955       -33.890378673855828        1.0650480565075604     
   1078.4533465347124       -33.891761783544474       -7.0095994775118907E-012
   1077.9167138694406       -33.858182205642755       -1.0640362417458658     
   1077.3322052774083       -33.789720374913109       -2.1258690139886820     
   1076.7002516112880       -33.686500223315271       -3.1843118061376301     
   1076.0213394673685       -33.548688882497601       -4.2381850142151087     
   1075.2960113794738       -33.376496304172420       -5.2863176871377444     
   1074.5248659207850       -33.170174799123060       -6.3275492523134673     
   1073.7085577095311       -32.930018495867564       -7.3607312161270055     
   1072.8477973147483       -32.656362720283703       -8.3847288349161442     
   1071.9433510585955       -32.349583297780136       -9.3984227520992807     
   1070.9960407120043       -32.010095779878398       -10.400710597192383     
   1070.0067430808094       -31.638354597347739       -11.390508542552373     
   1068.9763894798587       -31.234852142307545       -12.366752813803439     
   1067.9059650930296       -30.800117781979935       -13.328401150043344     
   1066.7965082175076       -30.334716807034166       -14.274434210087975     
   1065.6491093911393       -29.839249317714600       -15.203856921193802     
   1064.4649104021673       -29.314349051182475       -16.115699766899439     
   1063.2451031811577       -28.760682153727132       -17.009020010847813     
   1061.9909285754463       -28.178945901712805       -17.882902853689174     
   1060.7036750069678       -27.569867375320317       -18.736462520420872     
   1059.3846770148818       -26.934202089319275       -19.568843275791522     
   1058.0353136849360       -26.272732585260872       -20.379220365682933     
   1056.6570069680756       -25.586266989616600       -21.166800882682328     
   1055.2512198913341       -24.875637542499707       -21.930824554366751     
   1053.8194546645752       -24.141699101694527       -22.670564453140827     
   1052.3632506871797       -23.385327626783020       -23.385327626795121     
   1050.8841824592664       -22.607418648196209       -24.074455649283262     
   1049.3838574025146       -21.808885726031701       -24.737325091550392     
   1047.8639135961107       -20.990658903465118       -25.373347912579675     
   1046.3260174337618       -20.153683159544801       -25.981971771157028     
   1044.7718612081123       -19.298916866093958       -26.562680259182951     
   1043.2031606292430       -18.427330253353865       -27.114993057683510     
   1041.6216522842567       -17.539903888887192       -27.638466016986492     
   1040.0290910452197       -16.637627174119689       -28.132691162833414     
   1038.4272474329589       -15.721496862737308       -28.597296630488401     
   1036.8179049443941       -14.792515604969685       -29.031946529182449     
   1035.2028573512303       -13.851690521587399       -29.436340739491026     
   1033.5839059779137       -12.900031811214539       -29.810214646485761     
   1031.9628569668096       -11.938551394318443       -30.153338811722644     
   1030.3415185385495       -10.968261596979978       -30.465518587331502     
   1028.7216982554485       -9.9901738772788704       -30.746593675649720     
   1027.1052002958024       -9.0052975968453897       -30.996437638000661     
   1025.4938227467303       -8.0146388398400035       -31.214957356348222     
   1023.8893549230614       -7.0191992813227921       -31.402092451668391     
   1022.2935747195361       -6.0199751066726837       -31.557814662960599     
   1020.7082460033482       -5.0179559834087675       -31.682127190881321     
   1019.1351160537581       -4.0141240864607468       -31.775064010015129     
   1017.5759130552045       -3.0094531776287288       -31.836689153808578     
   1016.0323436499805       -2.0049077396714874       -31.867095976176984     
   1014.5060905561877       -1.0014421651659111       -31.866406393756627     
   1012.9988102562825        9.8903865811815339E-012  -31.834770112714221     
   1011.5121307611354       0.99848675899586692       -31.772363843944003     
   1010.0476494540866        1.9930983127689825       -31.679390510379751     
   1008.6069310190851        2.9829276564145619       -31.556078450028664     
   1007.1915054565260        3.9670811240482520       -31.402680618193866     
   1005.8028661900012        4.9446788838139950       -31.219473792197565     
   1004.4424682667135        5.9148553845983560       -31.006757781745964     
   1003.1117266538852        6.8767597562961766       -30.764854647893717     
   1001.8120146330698        7.8295561656434822       -30.494107933370582     
   1000.5446622938389        8.7724241297926717       -30.194881906827163     
   999.31095512793070        9.7045587899495249       -29.867560823343396     
   998.11213272453710        10.625171147513669       -29.512548203322716     
   996.94938756704448        11.533488265270879       -29.130266131669451     
   995.82386393115644        12.428753436270558       -28.721154578917140     
   994.73665688402207        13.310226323089797       -28.285670745745357     
   993.68881138363133        14.177183070234888       -27.824288432089247     
   992.68132147746553        15.028916392461154       -27.337497431816328     
   991.71512959909603        15.864735641806663       -26.825802953715044     
   990.79112596116704        16.683966856130269       -26.289725069314979     
   989.91014804296799        17.485952791925925       -25.729798187837069     
   989.07298017056803        18.270052944147647       -25.146570558357372     
   988.28035318731827        19.035643555730552       -24.540603799059355     
   987.53294421232545        19.782117619426781       -23.912472453248924     
   986.83137648437071        20.508884874498541       -23.262763571613693     
   986.17621928860626        21.215371800718660       -22.592076320025704     
   985.56798796324983        21.901021612028273       -21.901021612012411     
   985.00714398340494        22.565294252087703       -21.190221764859050     