 VARIABLES = "x_1", "x_2", "x_3"
 ZONE F = POINT , I =         201  , J =         101
   284.59401927705881        0.0000000000000000        0.0000000000000000     
   284.59564829815713        0.0000000000000000        0.0000000000000000     
   284.59712568462777        0.0000000000000000        0.0000000000000000     
   284.59844559868947        0.0000000000000000        0.0000000000000000     
   284.59960282457109        0.0000000000000000        0.0000000000000000     
   284.60059278920124        0.0000000000000000        0.0000000000000000     
   284.60141158035105        0.0000000000000000        0.0000000000000000     
   284.60205596215769        0.0000000000000000        0.0000000000000000     
   284.60252338796528        0.0000000000000000        0.0000000000000000     
   284.60281201043182        0.0000000000000000        0.0000000000000000     
   284.60292068886122        0.0000000000000000        0.0000000000000000     
   284.60284899373107        0.0000000000000000        0.0000000000000000     
   284.60259720839758        0.0000000000000000        0.0000000000000000     
   284.60216632797011        0.0000000000000000        0.0000000000000000     
   284.60155805536266        0.0000000000000000        0.0000000000000000     
   284.60077479453395        0.0000000000000000        0.0000000000000000     
   284.59981964094703        0.0000000000000000        0.0000000000000000     
   284.59869636928511        0.0000000000000000        0.0000000000000000     
   284.59740941847377        0.0000000000000000        0.0000000000000000     
   284.59596387406941        0.0000000000000000        0.0000000000000000     
   284.59436544808580        0.0000000000000000        0.0000000000000000     
   284.59262045633909        0.0000000000000000        0.0000000000000000     
   284.59073579340259        0.0000000000000000        0.0000000000000000     
   284.58871890527291        0.0000000000000000        0.0000000000000000     
   284.58657775985608        0.0000000000000000        0.0000000000000000     
   284.58432081539314        0.0000000000000000        0.0000000000000000     
   284.58195698695107        0.0000000000000000        0.0000000000000000     
   284.57949561111406        0.0000000000000000        0.0000000000000000     
   284.57694640901565        0.0000000000000000        0.0000000000000000     
   284.57431944786032        0.0000000000000000        0.0000000000000000     
   284.57162510108776        0.0000000000000000        0.0000000000000000     
   284.56887400733837        0.0000000000000000        0.0000000000000000     
   284.56607702838454        0.0000000000000000        0.0000000000000000     
   284.56324520619347        0.0000000000000000        0.0000000000000000     
   284.56038971929365        0.0000000000000000        0.0000000000000000     
   284.55752183861671        0.0000000000000000        0.0000000000000000     
   284.55465288299115        0.0000000000000000        0.0000000000000000     
   284.55179417446197        0.0000000000000000        0.0000000000000000     
   284.54895699361458        0.0000000000000000        0.0000000000000000     
   284.54615253507808        0.0000000000000000        0.0000000000000000     
   284.54339186338336        0.0000000000000000        0.0000000000000000     
   284.54068586935045        0.0000000000000000        0.0000000000000000     
   284.53804522717451        0.0000000000000000        0.0000000000000000     
   284.53548035238066        0.0000000000000000        0.0000000000000000     
   284.53300136081231        0.0000000000000000        0.0000000000000000     
   284.53061802881024        0.0000000000000000        0.0000000000000000     
   284.52833975474340        0.0000000000000000        0.0000000000000000     
   284.52617552203628        0.0000000000000000        0.0000000000000000     
   284.52413386383944        0.0000000000000000        0.0000000000000000     
   284.52222282948128        0.0000000000000000        0.0000000000000000     
   284.52044995282927       -0.0000000000000000        0.0000000000000000     
   284.51882222268495       -0.0000000000000000        0.0000000000000000     
   284.51734605532766       -0.0000000000000000        0.0000000000000000     
   284.51602726931247       -0.0000000000000000        0.0000000000000000     
   284.51487106262061       -0.0000000000000000        0.0000000000000000     
   284.51388199225028       -0.0000000000000000        0.0000000000000000     
   284.51306395632730       -0.0000000000000000        0.0000000000000000     
   284.51242017880406       -0.0000000000000000        0.0000000000000000     
   284.51195319680670       -0.0000000000000000        0.0000000000000000     
   284.51166485067790       -0.0000000000000000        0.0000000000000000     
   284.51155627675570       -0.0000000000000000        0.0000000000000000     
   284.51162790291443       -0.0000000000000000        0.0000000000000000     
   284.51187944688587       -0.0000000000000000        0.0000000000000000     
   284.51230991736662       -0.0000000000000000        0.0000000000000000     
   284.51291761790810       -0.0000000000000000        0.0000000000000000     
   284.51370015357321       -0.0000000000000000        0.0000000000000000     
   284.51465444033545       -0.0000000000000000        0.0000000000000000     
   284.51577671718172       -0.0000000000000000        0.0000000000000000     
   284.51706256087527       -0.0000000000000000        0.0000000000000000     
   284.51850690331975       -0.0000000000000000        0.0000000000000000     
   284.52010405145683       -0.0000000000000000        0.0000000000000000     
   284.52184770962305       -0.0000000000000000        0.0000000000000000     
   284.52373100427627       -0.0000000000000000        0.0000000000000000     
   284.52574651099849       -0.0000000000000000        0.0000000000000000     
   284.52788628366937       -0.0000000000000000        0.0000000000000000     
   284.53014188569693       -0.0000000000000000        0.0000000000000000     
   284.53250442318506       -0.0000000000000000        0.0000000000000000     
   284.53496457990889       -0.0000000000000000        0.0000000000000000     
   284.53751265396079       -0.0000000000000000        0.0000000000000000     
   284.54013859592641       -0.0000000000000000        0.0000000000000000     
   284.54283204843932       -0.0000000000000000        0.0000000000000000     
   284.54558238696194       -0.0000000000000000        0.0000000000000000     
   284.54837876163242       -0.0000000000000000        0.0000000000000000     
   284.55121014001338       -0.0000000000000000        0.0000000000000000     
   284.55406535057563       -0.0000000000000000        0.0000000000000000     
   284.55693312674526       -0.0000000000000000        0.0000000000000000     
   284.55980215134213       -0.0000000000000000        0.0000000000000000     
   284.56266110123346       -0.0000000000000000        0.0000000000000000     
   284.56549869202740       -0.0000000000000000        0.0000000000000000     
   284.56830372262988       -0.0000000000000000        0.0000000000000000     
   284.57106511948797       -0.0000000000000000        0.0000000000000000     
   284.57377198034555       -0.0000000000000000        0.0000000000000000     
   284.57641361733710       -0.0000000000000000        0.0000000000000000     
   284.57897959924856       -0.0000000000000000        0.0000000000000000     
   284.58145979277674       -0.0000000000000000        0.0000000000000000     
   284.58384440262523       -0.0000000000000000        0.0000000000000000     
   284.58612401027256       -0.0000000000000000        0.0000000000000000     
   284.58828961126301       -0.0000000000000000        0.0000000000000000     
   284.59033265086720       -0.0000000000000000        0.0000000000000000     
   284.59224505797130       -0.0000000000000000        0.0000000000000000     
   284.59401927705886       -0.0000000000000000       -0.0000000000000000     
   284.59564829815719       -0.0000000000000000       -0.0000000000000000     
   284.59712568462771       -0.0000000000000000       -0.0000000000000000     
   284.59844559868941       -0.0000000000000000       -0.0000000000000000     
   284.59960282457109       -0.0000000000000000       -0.0000000000000000     
   284.60059278920119       -0.0000000000000000       -0.0000000000000000     
   284.60141158035105       -0.0000000000000000       -0.0000000000000000     
   284.60205596215769       -0.0000000000000000       -0.0000000000000000     
   284.60252338796522       -0.0000000000000000       -0.0000000000000000     
   284.60281201043182       -0.0000000000000000       -0.0000000000000000     
   284.60292068886127       -0.0000000000000000       -0.0000000000000000     
   284.60284899373119       -0.0000000000000000       -0.0000000000000000     
   284.60259720839758       -0.0000000000000000       -0.0000000000000000     
   284.60216632797011       -0.0000000000000000       -0.0000000000000000     
   284.60155805536266       -0.0000000000000000       -0.0000000000000000     
   284.60077479453400       -0.0000000000000000       -0.0000000000000000     
   284.59981964094715       -0.0000000000000000       -0.0000000000000000     
   284.59869636928516       -0.0000000000000000       -0.0000000000000000     
   284.59740941847372       -0.0000000000000000       -0.0000000000000000     
   284.59596387406941       -0.0000000000000000       -0.0000000000000000     
   284.59436544808580       -0.0000000000000000       -0.0000000000000000     
   284.59262045633903       -0.0000000000000000       -0.0000000000000000     
   284.59073579340259       -0.0000000000000000       -0.0000000000000000     
   284.58871890527291       -0.0000000000000000       -0.0000000000000000     
   284.58657775985603       -0.0000000000000000       -0.0000000000000000     
   284.58432081539314       -0.0000000000000000       -0.0000000000000000     
   284.58195698695113       -0.0000000000000000       -0.0000000000000000     
   284.57949561111406       -0.0000000000000000       -0.0000000000000000     
   284.57694640901559       -0.0000000000000000       -0.0000000000000000     
   284.57431944786026       -0.0000000000000000       -0.0000000000000000     
   284.57162510108776       -0.0000000000000000       -0.0000000000000000     
   284.56887400733825       -0.0000000000000000       -0.0000000000000000     
   284.56607702838448       -0.0000000000000000       -0.0000000000000000     
   284.56324520619347       -0.0000000000000000       -0.0000000000000000     
   284.56038971929360       -0.0000000000000000       -0.0000000000000000     
   284.55752183861676       -0.0000000000000000       -0.0000000000000000     
   284.55465288299109       -0.0000000000000000       -0.0000000000000000     
   284.55179417446203       -0.0000000000000000       -0.0000000000000000     
   284.54895699361452       -0.0000000000000000       -0.0000000000000000     
   284.54615253507808       -0.0000000000000000       -0.0000000000000000     
   284.54339186338336       -0.0000000000000000       -0.0000000000000000     
   284.54068586935045       -0.0000000000000000       -0.0000000000000000     
   284.53804522717439       -0.0000000000000000       -0.0000000000000000     
   284.53548035238072       -0.0000000000000000       -0.0000000000000000     
   284.53300136081225       -0.0000000000000000       -0.0000000000000000     
   284.53061802881018       -0.0000000000000000       -0.0000000000000000     
   284.52833975474340       -0.0000000000000000       -0.0000000000000000     
   284.52617552203623       -0.0000000000000000       -0.0000000000000000     
   284.52413386383938       -0.0000000000000000       -0.0000000000000000     
   284.52222282948128       -0.0000000000000000       -0.0000000000000000     
   284.52044995282921        0.0000000000000000       -0.0000000000000000     
   284.51882222268495        0.0000000000000000       -0.0000000000000000     
   284.51734605532761        0.0000000000000000       -0.0000000000000000     
   284.51602726931247        0.0000000000000000       -0.0000000000000000     
   284.51487106262061        0.0000000000000000       -0.0000000000000000     
   284.51388199225028        0.0000000000000000       -0.0000000000000000     
   284.51306395632730        0.0000000000000000       -0.0000000000000000     
   284.51242017880412        0.0000000000000000       -0.0000000000000000     
   284.51195319680670        0.0000000000000000       -0.0000000000000000     
   284.51166485067790        0.0000000000000000       -0.0000000000000000     
   284.51155627675575        0.0000000000000000       -0.0000000000000000     
   284.51162790291443        0.0000000000000000       -0.0000000000000000     
   284.51187944688593        0.0000000000000000       -0.0000000000000000     
   284.51230991736662        0.0000000000000000       -0.0000000000000000     
   284.51291761790810        0.0000000000000000       -0.0000000000000000     
   284.51370015357321        0.0000000000000000       -0.0000000000000000     
   284.51465444033545        0.0000000000000000       -0.0000000000000000     
   284.51577671718172        0.0000000000000000       -0.0000000000000000     
   284.51706256087533        0.0000000000000000       -0.0000000000000000     
   284.51850690331975        0.0000000000000000       -0.0000000000000000     
   284.52010405145688        0.0000000000000000       -0.0000000000000000     
   284.52184770962310        0.0000000000000000       -0.0000000000000000     
   284.52373100427627        0.0000000000000000       -0.0000000000000000     
   284.52574651099849        0.0000000000000000       -0.0000000000000000     
   284.52788628366937        0.0000000000000000       -0.0000000000000000     
   284.53014188569693        0.0000000000000000       -0.0000000000000000     
   284.53250442318506        0.0000000000000000       -0.0000000000000000     
   284.53496457990883        0.0000000000000000       -0.0000000000000000     
   284.53751265396085        0.0000000000000000       -0.0000000000000000     
   284.54013859592646        0.0000000000000000       -0.0000000000000000     
   284.54283204843944        0.0000000000000000       -0.0000000000000000     
   284.54558238696194        0.0000000000000000       -0.0000000000000000     
   284.54837876163248        0.0000000000000000       -0.0000000000000000     
   284.55121014001338        0.0000000000000000       -0.0000000000000000     
   284.55406535057563        0.0000000000000000       -0.0000000000000000     
   284.55693312674526        0.0000000000000000       -0.0000000000000000     
   284.55980215134213        0.0000000000000000       -0.0000000000000000     
   284.56266110123346        0.0000000000000000       -0.0000000000000000     
   284.56549869202746        0.0000000000000000       -0.0000000000000000     
   284.56830372262999        0.0000000000000000       -0.0000000000000000     
   284.57106511948797        0.0000000000000000       -0.0000000000000000     
   284.57377198034555        0.0000000000000000       -0.0000000000000000     
   284.57641361733710        0.0000000000000000       -0.0000000000000000     
   284.57897959924861        0.0000000000000000       -0.0000000000000000     
   284.58145979277685        0.0000000000000000       -0.0000000000000000     
   284.58384440262523        0.0000000000000000       -0.0000000000000000     
   284.58612401027250        0.0000000000000000       -0.0000000000000000     
   284.58828961126306        0.0000000000000000       -0.0000000000000000     
   284.59033265086725        0.0000000000000000       -0.0000000000000000     
   284.59224505797135        0.0000000000000000       -0.0000000000000000     
   284.59401927705892        0.0000000000000000        0.0000000000000000     
   295.64223091776262        9.2909314024720739        0.0000000000000000     
   295.79162333652579        9.2910394179526925       0.29198267656786298     
   295.93002657023538        9.2816243674570096       0.58395030865196373     
   296.05725858644786        9.2626828056943680       0.87558131652397375     
   296.17314875919101        9.2342228342706250        1.1665536310863451     
   296.27753860631157        9.1962641613607214        1.4565451522738067     
   296.37028248624114        9.1488381396463740        1.7452342135839960     
   296.45124824755959        9.0919877818060151        2.0323000514110894     
   296.52031782548823        9.0257677529654448        2.3174232777759625     
   296.57738778025612        8.9502443396484743        2.6002863549808790     
   296.62236977312722        8.8654953949042383        2.8805740706667180     
   296.65519097675610        8.7716102594302949        3.1579740117171493     
   296.67579441741890        8.6686896586550546        3.4321770354369434     
   296.68413924754913        8.5568455758879729        3.7028777364309273     
   296.68020094786681        8.4362011017882583        3.9697749076252946     
   296.66397145921798        8.3068902605414348        4.2325719939035915     
   296.63545924502591        8.1690578132652227        4.4909775368746061     
   296.59468928598420        8.0228590392908590        4.7447056093473385     
   296.54170300928945        7.8684594960812815        4.9934762381580953     
   296.47655815530283        7.7060347586526401        5.2370158140745851     
   296.39932858505091        7.5357701394593271        5.4750574875905667     
   296.31010403240663        7.3578603897843973        5.7073415495197883     
   296.20898980515130        7.1725093837469807        5.9336157953987572     
   296.09610643937992        6.9799297860951564        6.1536358728116980     
   295.97158931190205        6.7803427049977296        6.3671656108571559     
   295.83558821539395        6.5739773310812444        6.5739773310819256     
   295.68826690108591        6.3610705639800722        6.7738521393133295     
   295.52980259372526        6.1418666276782474        6.9665801979239035     
   295.36038548344749        5.9166166759228869        7.1519609781623590     
   295.18021819901759        5.6855783889809421        7.3298034922801936     
   294.98951526669077        5.4490155629955597        7.4999265052741206     
   294.78850255867462        5.2071976931755177        7.6621587261496558     
   294.57741673488368        4.9603995520229320        7.8163389786907338     
   294.35650468135310        4.7089007637711857        7.9623163517938238     
   294.12602294834153        4.4529853761681313        8.0999503294925201     
   293.88623719079993        4.1929414306995891        8.2291109008602810     
   293.63742161353650        3.9290605323062482        8.3496786500350115     
   293.37985842306119        3.6616374196037351        8.4615448266598285     
   293.11383728775337        3.3909695365713262        8.5646113970798776     
   292.83965480768904        3.1173566066305458        8.6587910766763247     
   292.55761399515853        2.8411002099904876        8.7440073437553423     
   292.26802376664460        2.5625033650928812        8.8201944354433337     
   291.97119844678792        2.2818701149466323        8.8872973260695769     
   291.66745728466105        1.9995051190990012        8.9452716885446861     
   291.35712398249865        1.7157132519486704        8.9940838392680700     
   291.04052623689080        1.4307992080647489        9.0337106671201095     
   290.71799529234278        1.1450671151350387        9.0641395471157100     
   290.38986550703214       0.85882015512666543        9.0853682393147679     
   290.05647393055096       0.57236019420208095        9.0974047736028503     
   289.71815989341513       0.28598742189353643        9.1002673209713425     
   289.37526460813388       -9.4042301881658246E-013   9.0939840519409483     
   289.02813078167441      -0.28530627837727623        9.0785929827854996     
   288.67710223921978      -0.56963831925860708        9.0541418102244577     
   288.32252355918820      -0.85270604736087008        9.0206877352620491     
   287.96473971957778       -1.1342227144909551        8.9782972768586209     
   287.60409575579558       -1.4139051965194958        8.9270460761253041     
   287.24093643023082       -1.6914742787124386        8.8670186917360159     
   286.87560591393714       -1.9666549292478854        8.7983083872514118     
   286.50844748088497       -2.2391765607869232        8.7210169110469415     
   286.13980321533660       -2.5087732800091489        8.6352542695320444     
   285.77001373297668       -2.7751841250650133        8.5411384943390889     
   285.39941791649352       -3.0381532909375775        8.4387954041492073     
   285.02835266635736       -3.2974303427455900        8.3283583618076467     
   284.65715266756570       -3.5527704170572991        8.2099680273634288     
   284.28615017313194       -3.8039344113200690        8.0837721076474338     
   283.91567480507462       -4.0506891615439651        7.9499251029793934     
   283.54605337362131       -4.2928076084079070        7.8085880515682424     
   283.17760971526701       -4.5300689519841866        7.6599282721416220     
   282.81066455023426       -4.7622587953009967        7.5041191053100995     
   282.44553535975848       -4.9891692769828042        7.3413396541397669     
   282.08253628347290       -5.2105991932246214        7.1717745243738698     
   281.72197803699754       -5.4263541093685479        6.9956135647107871     
   281.36416784964194       -5.6362464613592120        6.8130516075121816     
   281.00940942191892       -5.8400956473589440        6.6242882102823151     
   280.65800290233312       -6.0377281098038118        6.4295273982277328     
   280.31024488266706       -6.2289774081784355        6.2289774081765001     
   279.96642841072679       -6.4136842827804941        6.0228504341082170     
   279.62684301924975       -6.5916967097362393        5.8113623745208605     
   279.29177476941129       -6.7628699475158758        5.5947325818383931     
   278.96150630709639       -6.9270665751830762        5.3731836140443123     
   278.63631692985257       -7.0841565225972154        5.1469409887116564     
   278.31648266218093       -7.2340170927697729        4.9162329395887960     
   278.00227633659284       -7.3765329765595897        4.6812901758937357     
   277.69396767764306       -7.5115962598750272        4.4423456444667835     
   277.39182338595299       -7.6391064235357815        4.1996342949327410     
   277.09610721907683       -7.7589703359336406        3.9533928480288099     
   276.80708006592425       -7.8711022386206126        3.7038595672629433     
   276.52500001135752       -7.9754237249450952        3.4512740340789461     
   276.25012238751214       -8.0718637118526342        3.1958769267186948     
   275.98269980837847       -8.1603584049682212        2.9379098029880133     
   275.72298218419382       -8.2408512570815997        2.6776148871498191     
   275.47121671226733       -8.3132929201669015        2.4152348611860863     
   275.22764784096944       -8.3776411910824962        2.1510126606873881     
   274.99251720377970       -8.4338609511169196        1.8851912756450651     
   274.76606352048600       -8.4819240995713585        1.6180135564350568     
   274.54852246288857       -8.5218094815990142        1.3497220252936690     
   274.34012648264803       -8.5535028105555480        1.0805586935927953     
   274.14110459926297       -8.5769965851529406       0.81076488522487900     
   273.95168214653285       -8.5922900017502837       0.54058106640523185     
   273.77208047628363       -8.5993888621591168       0.27024668219068038     
   273.60251661857279       -8.5983054773862388       -1.7783282547157976E-012
   273.44320289807251       -8.5890585677836171      -0.26992203961488825     
   273.29434650682509       -8.5716731601209091      -0.53928396467786244     
   273.15614903408255       -8.5461804821408762      -0.80785190584532418     
   273.02880595447670       -8.5126178552003768       -1.0753937225985655     
   272.91250607629974       -8.4710285856380043       -1.3416791215113122     
   272.80743095221914       -8.4214618555434235       -1.6064797665413255     
   272.71375425528714       -8.3639726136313062       -1.8695693813750274     
   272.63164112362438       -8.2986214669435672       -2.1307238439238936     
   272.56124747767535       -8.2254745741166939       -2.3897212731484347     
   272.50271931441245       -8.1446035409548934       -2.6463421084665670     
   272.45619198332929       -8.0560853190442145       -2.9003691820875042     
   272.42178944948370       -7.9600021081268100       -3.1515877846984455     
   272.39962354924450       -7.8564412629279055       -3.3997857250182544     
   272.38979324472928       -7.7454952050899903       -3.6447533838183430     
   272.39238388322269       -7.6272613408198184       -3.8862837630949834     
   272.40746646809777       -7.5018419847931925       -4.1241725311574458     
   272.43509694795353       -7.3693442907913527       -4.3582180644715178     
   272.47531553079807       -7.2298801894605980       -4.5882214871663116     
   272.52814603017225       -7.0835663334949972       -4.8139867091726298     
   272.59359525009739       -6.9305240504409218       -5.0353204640119316     
   272.67165241565891       -6.7708793032130004       -5.2520323472949224     
   272.76228865588786       -6.6047626582949182       -5.4639348570167883     
   272.86545654538918       -6.4323092614768811       -5.6708434367508627     
   272.98108971087345       -6.2536588208558168       -5.8725765228435485     
   273.10910250838793       -6.0689555966961564       -6.0689555966992970     
   273.24938977660645       -5.8783483976202433       -6.2598052432153830     
   273.40182667103863       -5.6819905824698838       -6.4449532163815322     
   273.56626858343833       -5.4800400670558922       -6.6242305129988974     
   273.74255115005781       -5.2726593348932020       -6.7974714553970870     
   273.93049035168627       -5.0600154509066497       -6.9645137839366456     
   274.12988270765572       -4.8422800769891836       -7.1251987599790221     
   274.34050556517752       -4.6196294882018973       -7.2793712798866075     
   274.56211748451710       -4.3922445883252967       -7.4268800004841999     
   274.79445871960996       -4.1603109234061737       -7.5675774762704551     
   275.03725179279058       -3.9240186918946298       -7.7013203085163013     
   275.29020216135365       -3.6835627499340671       -7.8279693062280220     
   275.55299897269930       -3.4391426103526670       -7.9473896587884409     
   275.82531590384446       -3.1909624339106197       -8.0594511199219934     
   276.10681208013546       -2.9392310113821849       -8.1640282024619708     
   276.39713306705232       -2.6841617350969620       -8.2610003832318171     
   276.69591192811657       -2.4259725586294407       -8.3502523171916216     
   277.00277034105699       -2.1648859434105208       -8.4316740598464843     
   277.31731976362221       -1.9011287911372514       -8.5051612967697334     
   277.63916263972175       -1.6349323609777286       -8.5706155789619061     
   277.96789363597497       -1.3665321707037497       -8.6279445626497289     
   278.30310089824536       -1.0961678810343674       -8.6770622520291827     
   278.64436731735293      -0.82408316263482684       -8.7178892433757493     
   278.99127179290281      -0.55052554538665055       -8.7503529688843305     
   279.34339048404553      -0.27574624972213074       -8.7743879385625334     
   279.70029803601375        2.7308463212784996E-012  -8.7899359784849533     
   280.06156877144866       0.27645517994082985       -8.7969464637231258     
   280.42677783585964       0.55335818865771313       -8.7953765442959213     
   280.79550228703170       0.83044508599847811       -8.7851913625379492     
   281.16732211882993        1.1074493482460670       -8.7663642603581913     
   281.54182121061143        1.3841021387462067       -8.7388769749557067     
   281.91858819436783        1.6601325930367206       -8.7027198216726713     
   282.29721723274753        1.9352681173972384       -8.6578918627944432     
   282.67730870225256        2.2092346996336056       -8.6044010612494191     
   283.05846977713651        2.4817572308290474       -8.5422644183151863     
   283.44031491084957        2.7525598367347124       -8.4715080945986827     
   283.82246621324168        3.0213662174341920       -8.3921675137235905     
   284.20455372314660        3.2878999939021711       -8.3042874483243043     
   284.58621557738525        3.5518850600844654       -8.2079220881095303     
   284.96709807863925        3.8130459391555780       -8.1031350899162646     
   285.34685566602087        4.0711081426590248       -7.9899996098234123     
   285.72515079348966        4.3257985313025680       -7.8685983175313243     
   286.10165372250623        4.5768456762640577       -7.7390233933353141     
   286.47604223646459        4.8239802199599833       -7.6013765081272080     
   286.84800128547209        5.0669352353364872       -7.4557687869457681     
   287.21722257094120        5.3054465828570052       -7.3023207566645532     
   287.58340408020956        5.5392532644801991       -7.1411622784527244     
   287.94624958199154        5.7680977740415136       -6.9724324656710266     
   288.30546809388920        5.9917264435700002       -6.7962795878711919     
   288.66077333343759        6.2098897851841626       -6.6128609615541230     
   289.01188316423247        6.4223428283152275       -6.4223428283105752     
   289.35851904858765        6.6288454520992905       -6.2249002209206976     