 VARIABLES = "x_1", "x_2", "x_3"
 ZONE F = POINT , I =         201  , J =         101
   3452.8845913625523        0.0000000000000000        0.0000000000000000     
   3452.8845913625523        0.0000000000000000        0.0000000000000000     
   3452.8845913625523        0.0000000000000000        0.0000000000000000     
   3452.8845913625523        0.0000000000000000        0.0000000000000000     
   3452.8845913625523        0.0000000000000000        0.0000000000000000     
   3452.8845913625523        0.0000000000000000        0.0000000000000000     
   3452.8845913625523        0.0000000000000000        0.0000000000000000     
   3452.8845913625523        0.0000000000000000        0.0000000000000000     
   3452.8845913625523        0.0000000000000000        0.0000000000000000     
   3452.8845913625523        0.0000000000000000        0.0000000000000000     
   3452.8845913625523        0.0000000000000000        0.0000000000000000     
   3452.8845913625523        0.0000000000000000        0.0000000000000000     
   3452.8845913625523        0.0000000000000000        0.0000000000000000     
   3452.8845913625523        0.0000000000000000        0.0000000000000000     
   3452.8845913625523        0.0000000000000000        0.0000000000000000     
   3452.8845913625523        0.0000000000000000        0.0000000000000000     
   3452.8845913625523        0.0000000000000000        0.0000000000000000     
   3452.8845913625523        0.0000000000000000        0.0000000000000000     
   3452.8845913625523        0.0000000000000000        0.0000000000000000     
   3452.8845913625523        0.0000000000000000        0.0000000000000000     
   3452.8845913625523        0.0000000000000000        0.0000000000000000     
   3452.8845913625523        0.0000000000000000        0.0000000000000000     
   3452.8845913625523        0.0000000000000000        0.0000000000000000     
   3452.8845913625523        0.0000000000000000        0.0000000000000000     
   3452.8845913625523        0.0000000000000000        0.0000000000000000     
   3452.8845913625523        0.0000000000000000        0.0000000000000000     
   3452.8845913625523        0.0000000000000000        0.0000000000000000     
   3452.8845913625523        0.0000000000000000        0.0000000000000000     
   3452.8845913625523        0.0000000000000000        0.0000000000000000     
   3452.8845913625523        0.0000000000000000        0.0000000000000000     
   3452.8845913625523        0.0000000000000000        0.0000000000000000     
   3452.8845913625523        0.0000000000000000        0.0000000000000000     
   3452.8845913625523        0.0000000000000000        0.0000000000000000     
   3452.8845913625523        0.0000000000000000        0.0000000000000000     
   3452.8845913625523        0.0000000000000000        0.0000000000000000     
   3452.8845913625523        0.0000000000000000        0.0000000000000000     
   3452.8845913625523        0.0000000000000000        0.0000000000000000     
   3452.8845913625523        0.0000000000000000        0.0000000000000000     
   3452.8845913625523        0.0000000000000000        0.0000000000000000     
   3452.8845913625523        0.0000000000000000        0.0000000000000000     
   3452.8845913625523        0.0000000000000000        0.0000000000000000     
   3452.8845913625523        0.0000000000000000        0.0000000000000000     
   3452.8845913625523        0.0000000000000000        0.0000000000000000     
   3452.8845913625523        0.0000000000000000        0.0000000000000000     
   3452.8845913625523        0.0000000000000000        0.0000000000000000     
   3452.8845913625523        0.0000000000000000        0.0000000000000000     
   3452.8845913625523        0.0000000000000000        0.0000000000000000     
   3452.8845913625523        0.0000000000000000        0.0000000000000000     
   3452.8845913625523        0.0000000000000000        0.0000000000000000     
   3452.8845913625523        0.0000000000000000        0.0000000000000000     
   3452.8845913625523       -0.0000000000000000        0.0000000000000000     
   3452.8845913625523       -0.0000000000000000        0.0000000000000000     
   3452.8845913625523       -0.0000000000000000        0.0000000000000000     
   3452.8845913625523       -0.0000000000000000        0.0000000000000000     
   3452.8845913625523       -0.0000000000000000        0.0000000000000000     
   3452.8845913625523       -0.0000000000000000        0.0000000000000000     
   3452.8845913625523       -0.0000000000000000        0.0000000000000000     
   3452.8845913625523       -0.0000000000000000        0.0000000000000000     
   3452.8845913625523       -0.0000000000000000        0.0000000000000000     
   3452.8845913625523       -0.0000000000000000        0.0000000000000000     
   3452.8845913625523       -0.0000000000000000        0.0000000000000000     
   3452.8845913625523       -0.0000000000000000        0.0000000000000000     
   3452.8845913625523       -0.0000000000000000        0.0000000000000000     
   3452.8845913625523       -0.0000000000000000        0.0000000000000000     
   3452.8845913625523       -0.0000000000000000        0.0000000000000000     
   3452.8845913625523       -0.0000000000000000        0.0000000000000000     
   3452.8845913625523       -0.0000000000000000        0.0000000000000000     
   3452.8845913625523       -0.0000000000000000        0.0000000000000000     
   3452.8845913625523       -0.0000000000000000        0.0000000000000000     
   3452.8845913625523       -0.0000000000000000        0.0000000000000000     
   3452.8845913625523       -0.0000000000000000        0.0000000000000000     
   3452.8845913625523       -0.0000000000000000        0.0000000000000000     
   3452.8845913625523       -0.0000000000000000        0.0000000000000000     
   3452.8845913625523       -0.0000000000000000        0.0000000000000000     
   3452.8845913625523       -0.0000000000000000        0.0000000000000000     
   3452.8845913625523       -0.0000000000000000        0.0000000000000000     
   3452.8845913625523       -0.0000000000000000        0.0000000000000000     
   3452.8845913625523       -0.0000000000000000        0.0000000000000000     
   3452.8845913625523       -0.0000000000000000        0.0000000000000000     
   3452.8845913625523       -0.0000000000000000        0.0000000000000000     
   3452.8845913625523       -0.0000000000000000        0.0000000000000000     
   3452.8845913625523       -0.0000000000000000        0.0000000000000000     
   3452.8845913625523       -0.0000000000000000        0.0000000000000000     
   3452.8845913625523       -0.0000000000000000        0.0000000000000000     
   3452.8845913625523       -0.0000000000000000        0.0000000000000000     
   3452.8845913625523       -0.0000000000000000        0.0000000000000000     
   3452.8845913625523       -0.0000000000000000        0.0000000000000000     
   3452.8845913625523       -0.0000000000000000        0.0000000000000000     
   3452.8845913625523       -0.0000000000000000        0.0000000000000000     
   3452.8845913625523       -0.0000000000000000        0.0000000000000000     
   3452.8845913625523       -0.0000000000000000        0.0000000000000000     
   3452.8845913625523       -0.0000000000000000        0.0000000000000000     
   3452.8845913625523       -0.0000000000000000        0.0000000000000000     
   3452.8845913625523       -0.0000000000000000        0.0000000000000000     
   3452.8845913625523       -0.0000000000000000        0.0000000000000000     
   3452.8845913625523       -0.0000000000000000        0.0000000000000000     
   3452.8845913625523       -0.0000000000000000        0.0000000000000000     
   3452.8845913625523       -0.0000000000000000        0.0000000000000000     
   3452.8845913625523       -0.0000000000000000        0.0000000000000000     
   3452.8845913625523       -0.0000000000000000        0.0000000000000000     
   3452.8845913625523       -0.0000000000000000       -0.0000000000000000     
   3452.8845913625523       -0.0000000000000000       -0.0000000000000000     
   3452.8845913625523       -0.0000000000000000       -0.0000000000000000     
   3452.8845913625523       -0.0000000000000000       -0.0000000000000000     
   3452.8845913625523       -0.0000000000000000       -0.0000000000000000     
   3452.8845913625523       -0.0000000000000000       -0.0000000000000000     
   3452.8845913625523       -0.0000000000000000       -0.0000000000000000     
   3452.8845913625523       -0.0000000000000000       -0.0000000000000000     
   3452.8845913625523       -0.0000000000000000       -0.0000000000000000     
   3452.8845913625523       -0.0000000000000000       -0.0000000000000000     
   3452.8845913625523       -0.0000000000000000       -0.0000000000000000     
   3452.8845913625523       -0.0000000000000000       -0.0000000000000000     
   3452.8845913625523       -0.0000000000000000       -0.0000000000000000     
   3452.8845913625523       -0.0000000000000000       -0.0000000000000000     
   3452.8845913625523       -0.0000000000000000       -0.0000000000000000     
   3452.8845913625523       -0.0000000000000000       -0.0000000000000000     
   3452.8845913625523       -0.0000000000000000       -0.0000000000000000     
   3452.8845913625523       -0.0000000000000000       -0.0000000000000000     
   3452.8845913625523       -0.0000000000000000       -0.0000000000000000     
   3452.8845913625523       -0.0000000000000000       -0.0000000000000000     
   3452.8845913625523       -0.0000000000000000       -0.0000000000000000     
   3452.8845913625523       -0.0000000000000000       -0.0000000000000000     
   3452.8845913625523       -0.0000000000000000       -0.0000000000000000     
   3452.8845913625523       -0.0000000000000000       -0.0000000000000000     
   3452.8845913625523       -0.0000000000000000       -0.0000000000000000     
   3452.8845913625523       -0.0000000000000000       -0.0000000000000000     
   3452.8845913625523       -0.0000000000000000       -0.0000000000000000     
   3452.8845913625523       -0.0000000000000000       -0.0000000000000000     
   3452.8845913625523       -0.0000000000000000       -0.0000000000000000     
   3452.8845913625523       -0.0000000000000000       -0.0000000000000000     
   3452.8845913625523       -0.0000000000000000       -0.0000000000000000     
   3452.8845913625523       -0.0000000000000000       -0.0000000000000000     
   3452.8845913625523       -0.0000000000000000       -0.0000000000000000     
   3452.8845913625523       -0.0000000000000000       -0.0000000000000000     
   3452.8845913625523       -0.0000000000000000       -0.0000000000000000     
   3452.8845913625523       -0.0000000000000000       -0.0000000000000000     
   3452.8845913625523       -0.0000000000000000       -0.0000000000000000     
   3452.8845913625523       -0.0000000000000000       -0.0000000000000000     
   3452.8845913625523       -0.0000000000000000       -0.0000000000000000     
   3452.8845913625523       -0.0000000000000000       -0.0000000000000000     
   3452.8845913625523       -0.0000000000000000       -0.0000000000000000     
   3452.8845913625523       -0.0000000000000000       -0.0000000000000000     
   3452.8845913625523       -0.0000000000000000       -0.0000000000000000     
   3452.8845913625523       -0.0000000000000000       -0.0000000000000000     
   3452.8845913625523       -0.0000000000000000       -0.0000000000000000     
   3452.8845913625523       -0.0000000000000000       -0.0000000000000000     
   3452.8845913625523       -0.0000000000000000       -0.0000000000000000     
   3452.8845913625523       -0.0000000000000000       -0.0000000000000000     
   3452.8845913625523       -0.0000000000000000       -0.0000000000000000     
   3452.8845913625523       -0.0000000000000000       -0.0000000000000000     
   3452.8845913625523        0.0000000000000000       -0.0000000000000000     
   3452.8845913625523        0.0000000000000000       -0.0000000000000000     
   3452.8845913625523        0.0000000000000000       -0.0000000000000000     
   3452.8845913625523        0.0000000000000000       -0.0000000000000000     
   3452.8845913625523        0.0000000000000000       -0.0000000000000000     
   3452.8845913625523        0.0000000000000000       -0.0000000000000000     
   3452.8845913625523        0.0000000000000000       -0.0000000000000000     
   3452.8845913625523        0.0000000000000000       -0.0000000000000000     
   3452.8845913625523        0.0000000000000000       -0.0000000000000000     
   3452.8845913625523        0.0000000000000000       -0.0000000000000000     
   3452.8845913625523        0.0000000000000000       -0.0000000000000000     
   3452.8845913625523        0.0000000000000000       -0.0000000000000000     
   3452.8845913625523        0.0000000000000000       -0.0000000000000000     
   3452.8845913625523        0.0000000000000000       -0.0000000000000000     
   3452.8845913625523        0.0000000000000000       -0.0000000000000000     
   3452.8845913625523        0.0000000000000000       -0.0000000000000000     
   3452.8845913625523        0.0000000000000000       -0.0000000000000000     
   3452.8845913625523        0.0000000000000000       -0.0000000000000000     
   3452.8845913625523        0.0000000000000000       -0.0000000000000000     
   3452.8845913625523        0.0000000000000000       -0.0000000000000000     
   3452.8845913625523        0.0000000000000000       -0.0000000000000000     
   3452.8845913625523        0.0000000000000000       -0.0000000000000000     
   3452.8845913625523        0.0000000000000000       -0.0000000000000000     
   3452.8845913625523        0.0000000000000000       -0.0000000000000000     
   3452.8845913625523        0.0000000000000000       -0.0000000000000000     
   3452.8845913625523        0.0000000000000000       -0.0000000000000000     
   3452.8845913625523        0.0000000000000000       -0.0000000000000000     
   3452.8845913625523        0.0000000000000000       -0.0000000000000000     
   3452.8845913625523        0.0000000000000000       -0.0000000000000000     
   3452.8845913625523        0.0000000000000000       -0.0000000000000000     
   3452.8845913625523        0.0000000000000000       -0.0000000000000000     
   3452.8845913625523        0.0000000000000000       -0.0000000000000000     
   3452.8845913625523        0.0000000000000000       -0.0000000000000000     
   3452.8845913625523        0.0000000000000000       -0.0000000000000000     
   3452.8845913625523        0.0000000000000000       -0.0000000000000000     
   3452.8845913625523        0.0000000000000000       -0.0000000000000000     
   3452.8845913625523        0.0000000000000000       -0.0000000000000000     
   3452.8845913625523        0.0000000000000000       -0.0000000000000000     
   3452.8845913625523        0.0000000000000000       -0.0000000000000000     
   3452.8845913625523        0.0000000000000000       -0.0000000000000000     
   3452.8845913625523        0.0000000000000000       -0.0000000000000000     
   3452.8845913625523        0.0000000000000000       -0.0000000000000000     
   3452.8845913625523        0.0000000000000000       -0.0000000000000000     
   3452.8845913625523        0.0000000000000000       -0.0000000000000000     
   3452.8845913625523        0.0000000000000000       -0.0000000000000000     
   3452.8845913625523        0.0000000000000000       -0.0000000000000000     
   3452.8845913625523        0.0000000000000000       -0.0000000000000000     
   3452.8845913625523        0.0000000000000000       -0.0000000000000000     
   3452.8845913625523        0.0000000000000000       -0.0000000000000000     
   3452.8845913625523        0.0000000000000000       -0.0000000000000000     
   3452.8845913625523        0.0000000000000000        0.0000000000000000     
   3400.5771732309186        106.86744294690888        0.0000000000000000     
   3404.4409353054743        106.93607401460504        3.3606015116146892     
   3408.4140338384436        106.90236174242702        6.7257265176545378     
   3412.4929448947578        106.76596775957893        10.092355376070815     
   3416.6737105597035        106.52662649359591        13.457442512897588     
   3420.9519378114642        106.18414697050845        16.817916689263413     
   3425.3227988955591        105.73841479734325        20.170681389013250     
   3429.7810332595918        105.18939432032877        23.512615350506046     
   3434.3209511048390        104.53713094985494        26.840573265971045     
   3438.9364386087173        103.78175364088769        30.151386671415313     
   3443.6209648688887        102.92347751516976        33.441865049465676     
   3448.3675906158769        101.96260660917663        36.708797166694026     
   3453.1689787362575        100.89953672945106        39.948952665907001     
   3458.0174066428895        99.734758394639215        43.159083932574418     
   3462.9047805221740        98.468859841316089        46.335928253022331     
   3467.8226514808571        97.102530068540318        49.476210280223086     
   3472.7622336066197        95.636561894048910        52.576644820979318     
   3477.7144239473282        94.071854993111359        55.633939956020626     
   3482.6698244036334        92.409418889342746        58.644800502022449     
   3487.6187655184340        90.650375865251391        61.605931821819610     
   3492.5513321347430        88.795963758999250        64.514043986141331     
   3497.4573908806265        86.847538612806858        67.365856287050448     
   3502.3266194263269        84.806577137671027        70.158102099952487     
   3507.1485374444801        82.674678958605412        72.887534087571268     
   3511.9125391895454        80.453568604486065        75.550929735695732     
   3516.6079275974907        78.145097206812451        78.145097206820537     
   3521.2239497912606        75.751243872289649        80.666881494063318     
   3525.7498338621554        73.274116695125741        83.113170853987839     
   3530.1748267818184        70.715953376323810        85.480903493232859     
   3534.4882332844027        68.079121419038614        87.767074480187802     
   3538.6794555439214        65.366117871270575        89.968742849416245     
   3542.7380334578729        62.579568589772848        92.083038863154343     
   3546.6536853352386        59.722227002047255        94.107171391051722     
   3550.4163487752385        56.796972346684171        96.038435366432793     
   3554.0162215126634        53.806807376033454        97.874219274774234     
   3557.4438019969039        50.754855509257013        99.612012627881583     
   3560.6899294646041        47.644357428163573        101.24941337543305     
   3563.7458232608969        44.478667112830294        102.78413520419603     
   3566.6031211611294        41.261247318817418        104.21401467433738     
   3569.2539164444056        37.995664502735806        105.53701814187961     
   3571.6907934719425        34.685583207969962        106.75124841652163     
   3573.9068615274564        31.334759927431470        107.85495110476320     
   3575.8957866834908        27.947036465255170        108.84652058955605     
   3577.6518214668990        24.526332824286389        109.72450559955301     
   3579.1698321083641        21.076639650973789        110.48761432342847     
   3580.4453231750749        17.602010273814162        111.13471902768687     
   3581.4744594021404        14.106552375725771        111.66486013983202     
   3582.2540845570043        10.594419344596158        112.07724976270450     
   3582.7817371917299        7.0698013496975713        112.37127459016563     
   3583.0556631605027        3.5369161946399541        112.54649819906551     
   3583.0748248035297       -1.1644416283991946E-011   112.60266269751695     
   3582.8389067237099       -3.5367022294269459        112.53968971485006     
   3582.3483181084689       -7.0689460961651687        112.35768072417112     
   3581.6041915758888       -10.592497303745503        112.05691669412472     
   3580.6083785510637       -14.103141094996836        111.63785707218152     
   3579.3634412056176       -17.596691578584878        111.10113810747799     
   3577.8726410196709       -21.069000888261908        110.44757052683597     
   3576.1399240513588       -24.515968121129401        109.67813658302097     
   3574.1699030235768       -27.933548003517117        108.79398649948435     
   3571.9678363611006       -31.317759235931817        107.79643434071917     
   3569.5396043328255       -34.664692471868619        106.68695334186786     
   3566.8916824738390       -37.970517889060844        105.46717073531477     
   3564.0311124797945       -41.231492315912789        104.13886211561861     
   3560.9654707816362       -44.443965880352266        102.70394538725928     
   3557.7028350219703       -47.604388153095741        101.16447434225691     
   3554.2517486650695       -50.709313762266959        99.522631916748963     
   3550.6211839807320       -53.755407461385509        97.780723177070868     
   3546.8205036479762       -56.739448637878553        95.941168086778944     
   3542.8594212276630       -59.658335254396128        94.006494106377801     
   3538.7479607539472       -62.509087220270516        91.979328677292926     
   3534.4964156928322       -65.288849195388565        89.862391640874407     
   3530.1153075122888       -67.994892833488763        87.658487641965252     
   3525.6153441025176       -70.624618476402929        85.370498564847153     
   3521.0073782771606       -73.175556314988086        83.001376047229030     
   3516.3023665767296       -75.645367036399932        80.554134115411529     
   3511.5113285845850       -78.031841980915559        78.031841980891315     
   3506.6453069535442       -80.332902834689349        75.437617035512716     
   3501.7153283278294       -82.546600887606886        72.774618078874568     
   3496.7323653309686       -84.671115887774050        70.046038808116805     
   3491.7072997754449       -86.704754526133527        67.255101596485275     
   3486.6508872347695       -88.645948586242056        64.405051583259137     
   3481.5737231032303       -90.493252795369699        61.499151093765761     
   3476.4862102531984       -92.245342413809126        58.540674404349012     
   3471.3985283846787       -93.901010599624072        55.532902863340176     
   3466.3206051468424       -95.459165586034331        52.479120375340756     
   3461.2620890968856       -96.918827708257083        49.382609252501339     
   3456.2323245476791       -98.279126315920777        46.246646432997991     
   3451.2403283425301       -99.539296606165067        43.074500063594435     
   3446.2947685829436       -100.69867641126427        39.869426440056692     
   3441.4039453237806       -101.75670297309389        36.634667296277449     
   3436.5757732394718       -102.71290973502379        33.373447430280692     
   3431.8177662551898       -103.56692317989740        30.088972652830289     
   3427.1370241280933       -104.31845974067701        26.784428042162283     
   3422.5402209557678       -104.96732280811743        23.462976486406969     
   3418.0335955819842       -105.51339985751125        20.127757493566062     
   3413.6229438638293       -105.95665971414915        16.781886247461497     
   3409.3136127588105       -106.29714997467654        13.428452886872178     
   3405.1104961862129       -106.53499459904087        10.070521984122289     
   3401.0180326130339       -106.67039168521212        6.7111321986698966     
   3397.0402043118393       -106.70361143636261        3.3532960807636250     
   3393.1805382353514       -106.63499432771262       -2.2054580853537616E-011
   3389.4421084506289       -106.46494947781220       -3.3457958266039238     
   3385.8275400742505       -106.19395322664631       -6.6811572316265844     
   3382.3390146488618       -105.82254792063644       -10.003175944826141     
   3378.9782769006783       -105.35134090237665       -13.308969414684306     
   3375.7466428171711       -104.78100370080153       -16.595680627817977     
   3372.6450089838550       -104.11227141544035       -19.860477948667391     
   3369.6738631191170       -103.34594228648479       -23.100555001013742     
   3366.8332957459320       -102.48287744058354       -26.313130611680467     
   3364.1230129395385       -101.52400080059624       -29.495448835470633     
   3361.5423500901225       -100.47029914598663       -32.644779078968483     
   3359.0902866197048       -99.322822309124874       -35.758416339304162     
   3356.7654615923807       -98.082683491503133       -38.833681572354259     
   3354.5661901570606       -96.751059682754416       -41.867922203141667     
   3352.4904807616067       -95.329192164403239       -44.858512789414469     
   3350.5360530770417       -93.818387079476494       -47.802855847540684     
   3348.7003565700952       -92.220016048464302       -50.698382847963984     
   3346.9805896617922       -90.535516811645081       -53.542555385535572     
   3345.3737194092132       -88.766393877484859       -56.332866528086996     
   3343.8765016467955       -86.914219156680701       -59.066842344644151     
   3342.4855015227054       -84.980632561450165       -61.742043612722952     
   3341.1971143649762       -82.967342549869130       -64.356067702201528     
   3340.0075868111553       -80.876126595427195       -66.906550631349759     
   3338.9130381342234       -78.708831562503576       -69.391169288721372     
   3337.9094816967313       -76.467373969163134       -71.807643812802553     
   3336.9928464641116       -74.153740119523889       -74.153740119562258     
   3336.1589985073924       -71.769986088954255       -76.427272566391153     
   3335.4037624248540       -69.318237546509366       -78.626106739352835     
   3334.7229426116514       -66.800689400303895       -80.748162349219172     
   3334.1123443060374       -64.219605252934301       -82.791416220432083     
   3333.5677943407586       -61.577316655598082       -84.753905355941612     
   3333.0851615282791       -58.876222151193879       -86.633730059822227     
   3332.6603766088779       -56.118786098419328       -88.429057098676097     
   3332.2894516913866       -53.307537270688194       -90.138122882108163     
   3331.9684991173231       -50.445067225563548       -91.759236641999763     
   3331.6937496805394       -47.534028442316028       -93.290783589934549     
   3331.4615701362063       -44.577132227168427       -94.731228031934123     
   3331.2684799350254       -41.577146387742239       -96.079116419656671     
   3331.1111671209446       -38.536892680179619       -97.333080317387072     
   3330.9865033335213       -35.459244034340777       -98.491839264517552     
   3330.8915578590945       -32.347121564368543       -99.554203513761706     
   3330.8236106785398       -29.203491373737450       -100.51907662607857     
   3330.7801644630963       -26.031361165661124       -101.38545790418080     
   3330.7589554738975       -22.833776671385195       -102.15244464756960     
   3330.7579633252626       -19.613817910447942       -102.81923421325997     
   3330.7754195764046       -16.374595298409535       -103.38512586772480     
   3330.8098151211129       -13.119245618843204       -103.84952241708181     
   3330.8599063500205       -9.8509278775129410       -104.21193160415993     
   3330.9247200652330       -6.5728190576406318       -104.47196726279262     
   3331.0035571324461       -3.2881097959710246       -104.62935022148352     
   3331.0959948610302        3.2523065964772446E-011  -104.68390895045110     
   3331.2018881079439        3.2883055730779698       -104.63557994797056     
   3331.3213691067567        6.5736017539831426       -104.48440786387187     
   3331.4548460283390        9.8526873955481555       -104.23054536000326     
   3331.6030002850439        13.122369781368061       -103.87425270941536     
   3331.7667825952781        16.379468988885986       -103.41589713793731     
   3331.9474078302528        19.620822186473070       -102.85595191368982     
   3332.1463486694711        22.843287844969900       -102.19499519189377     
   3332.3653280959197        26.043749844950916       -101.43370862406550     
   3332.6063107662280        29.219121461945576       -100.57287574233342     
   3332.8714932948646        32.366349212979678       -99.613380131140559     
   3333.1632934952127        35.482416549054271       -98.556203400016130     
   3333.4843386235348        38.564347379563706       -97.402422972375220     
   3333.8374526748917        41.609209416139343       -96.153209706449104     
   3334.2256427826778        44.614117324984882       -94.809825365436240     
   3334.6520847757324        47.576235678429363       -93.373619954795544     
   3335.1201079489470        50.492781698137925       -91.846028945275194     
   3335.6331791049206        53.361027784189744       -90.228570400771915     
   3336.1948859254758        56.178303826021043       -88.522842030453361     
   3336.8089197328909        58.941999293044987       -86.730518184742621     
   3337.4790577013555        61.649565104561162       -84.853346814765828     
   3338.2091445796013        64.298515280363162       -82.893146414697014     
   3339.0030739858489        66.886428375207657       -80.851802966112686     
   3339.8647693360954        69.410948702027255       -78.731266902981574     
   3340.7981644666011        71.869787350424147       -76.533550115289458     
   3341.8071840109301        74.260723008572214       -74.260723008518426     
   3342.8957235913949        76.581602598159776       -71.914911635294743     