 VARIABLES = "x_1", "x_2", "x_3"
 ZONE F = POINT , I =         201  , J =         101
   272.18220467272391        0.0000000000000000        0.0000000000000000     
   272.34208317592567        0.0000000000000000        0.0000000000000000     
   272.50189173467430        0.0000000000000000        0.0000000000000000     
   272.66099696189292        0.0000000000000000        0.0000000000000000     
   272.81876494144649        0.0000000000000000        0.0000000000000000     
   272.97456380919192        0.0000000000000000        0.0000000000000000     
   273.12776637804922        0.0000000000000000        0.0000000000000000     
   273.27775279517039        0.0000000000000000        0.0000000000000000     
   273.42391321830996        0.0000000000000000        0.0000000000000000     
   273.56565049758211        0.0000000000000000        0.0000000000000000     
   273.70238284797415        0.0000000000000000        0.0000000000000000     
   273.83354649727585        0.0000000000000000        0.0000000000000000     
   273.95859829349916        0.0000000000000000        0.0000000000000000     
   274.07701825542955        0.0000000000000000        0.0000000000000000     
   274.18831204967358        0.0000000000000000        0.0000000000000000     
   274.29201337746156        0.0000000000000000        0.0000000000000000     
   274.38768625455128        0.0000000000000000        0.0000000000000000     
   274.47492716784831        0.0000000000000000        0.0000000000000000     
   274.55336709283347        0.0000000000000000        0.0000000000000000     
   274.62267335655673        0.0000000000000000        0.0000000000000000     
   274.68255133182362        0.0000000000000000        0.0000000000000000     
   274.73274594925562        0.0000000000000000        0.0000000000000000     
   274.77304301514533        0.0000000000000000        0.0000000000000000     
   274.80327032442881        0.0000000000000000        0.0000000000000000     
   274.82329855965031        0.0000000000000000        0.0000000000000000     
   274.83304196848496        0.0000000000000000        0.0000000000000000     
   274.83245881416707        0.0000000000000000        0.0000000000000000     
   274.82155159505254        0.0000000000000000        0.0000000000000000     
   274.80036703146999        0.0000000000000000        0.0000000000000000     
   274.76899581997054        0.0000000000000000        0.0000000000000000     
   274.72757215704149        0.0000000000000000        0.0000000000000000     
   274.67627303627273        0.0000000000000000        0.0000000000000000     
   274.61531732482962        0.0000000000000000        0.0000000000000000     
   274.54496462686859        0.0000000000000000        0.0000000000000000     
   274.46551394319908        0.0000000000000000        0.0000000000000000     
   274.37730213803547        0.0000000000000000        0.0000000000000000     
   274.28070222506955        0.0000000000000000        0.0000000000000000     
   274.17612148630667        0.0000000000000000        0.0000000000000000     
   274.06399943815029        0.0000000000000000        0.0000000000000000     
   273.94480566005825        0.0000000000000000        0.0000000000000000     
   273.81903750174638        0.0000000000000000        0.0000000000000000     
   273.68721768536204        0.0000000000000000        0.0000000000000000     
   273.54989181930210        0.0000000000000000        0.0000000000000000     
   273.40762584041352        0.0000000000000000        0.0000000000000000     
   273.26100340118819        0.0000000000000000        0.0000000000000000     
   273.11062321827137        0.0000000000000000        0.0000000000000000     
   272.95709639814942        0.0000000000000000        0.0000000000000000     
   272.80104375528134        0.0000000000000000        0.0000000000000000     
   272.64309313722117        0.0000000000000000        0.0000000000000000     
   272.48387677044366        0.0000000000000000        0.0000000000000000     
   272.32402863966405       -0.0000000000000000        0.0000000000000000     
   272.16418191245918       -0.0000000000000000        0.0000000000000000     
   272.00496641994994       -0.0000000000000000        0.0000000000000000     
   271.84700620323969       -0.0000000000000000        0.0000000000000000     
   271.69091713421369       -0.0000000000000000        0.0000000000000000     
   271.53730461822363       -0.0000000000000000        0.0000000000000000     
   271.38676138511926       -0.0000000000000000        0.0000000000000000     
   271.23986537405398       -0.0000000000000000        0.0000000000000000     
   271.09717771651054       -0.0000000000000000        0.0000000000000000     
   270.95924082105842       -0.0000000000000000        0.0000000000000000     
   270.82657656249324       -0.0000000000000000        0.0000000000000000     
   270.69968457721302       -0.0000000000000000        0.0000000000000000     
   270.57904066597479       -0.0000000000000000        0.0000000000000000     
   270.46509530453989       -0.0000000000000000        0.0000000000000000     
   270.35827226217083       -0.0000000000000000        0.0000000000000000     
   270.25896732747788       -0.0000000000000000        0.0000000000000000     
   270.16754714073676       -0.0000000000000000        0.0000000000000000     
   270.08434813150598       -0.0000000000000000        0.0000000000000000     
   270.00967556015581       -0.0000000000000000        0.0000000000000000     
   269.94380266178695       -0.0000000000000000        0.0000000000000000     
   269.88696989094962       -0.0000000000000000        0.0000000000000000     
   269.83938426557847       -0.0000000000000000        0.0000000000000000     
   269.80121880861901       -0.0000000000000000        0.0000000000000000     
   269.77261208593916       -0.0000000000000000        0.0000000000000000     
   269.75366783928524       -0.0000000000000000        0.0000000000000000     
   269.74445471324213       -0.0000000000000000        0.0000000000000000     
   269.74500607539460       -0.0000000000000000        0.0000000000000000     
   269.75531992914892       -0.0000000000000000        0.0000000000000000     
   269.77535891894405       -0.0000000000000000        0.0000000000000000     
   269.80505042787240       -0.0000000000000000        0.0000000000000000     
   269.84428676800439       -0.0000000000000000        0.0000000000000000     
   269.89292546399525       -0.0000000000000000        0.0000000000000000     
   269.95078963080124       -0.0000000000000000        0.0000000000000000     
   270.01766844656976       -0.0000000000000000        0.0000000000000000     
   270.09331772196794       -0.0000000000000000        0.0000000000000000     
   270.17746056736814       -0.0000000000000000        0.0000000000000000     
   270.26978815942658       -0.0000000000000000        0.0000000000000000     
   270.36996060864362       -0.0000000000000000        0.0000000000000000     
   270.47760792948890       -0.0000000000000000        0.0000000000000000     
   270.59233111460384       -0.0000000000000000        0.0000000000000000     
   270.71370331444791       -0.0000000000000000        0.0000000000000000     
   270.84127112353099       -0.0000000000000000        0.0000000000000000     
   270.97455597407367       -0.0000000000000000        0.0000000000000000     
   271.11305563754735       -0.0000000000000000        0.0000000000000000     
   271.25624583407404       -0.0000000000000000        0.0000000000000000     
   271.40358194911215       -0.0000000000000000        0.0000000000000000     
   271.55450085620572       -0.0000000000000000        0.0000000000000000     
   271.70842284385787       -0.0000000000000000        0.0000000000000000     
   271.86475364378538       -0.0000000000000000        0.0000000000000000     
   272.02288655693690       -0.0000000000000000        0.0000000000000000     
   272.18220467272494       -0.0000000000000000       -0.0000000000000000     
   272.34208317592686       -0.0000000000000000       -0.0000000000000000     
   272.50189173467533       -0.0000000000000000       -0.0000000000000000     
   272.66099696189389       -0.0000000000000000       -0.0000000000000000     
   272.81876494144745       -0.0000000000000000       -0.0000000000000000     
   272.97456380919300       -0.0000000000000000       -0.0000000000000000     
   273.12776637805018       -0.0000000000000000       -0.0000000000000000     
   273.27775279517141       -0.0000000000000000       -0.0000000000000000     
   273.42391321831093       -0.0000000000000000       -0.0000000000000000     
   273.56565049758296       -0.0000000000000000       -0.0000000000000000     
   273.70238284797506       -0.0000000000000000       -0.0000000000000000     
   273.83354649727676       -0.0000000000000000       -0.0000000000000000     
   273.95859829350007       -0.0000000000000000       -0.0000000000000000     
   274.07701825543035       -0.0000000000000000       -0.0000000000000000     
   274.18831204967427       -0.0000000000000000       -0.0000000000000000     
   274.29201337746230       -0.0000000000000000       -0.0000000000000000     
   274.38768625455191       -0.0000000000000000       -0.0000000000000000     
   274.47492716784882       -0.0000000000000000       -0.0000000000000000     
   274.55336709283387       -0.0000000000000000       -0.0000000000000000     
   274.62267335655719       -0.0000000000000000       -0.0000000000000000     
   274.68255133182396       -0.0000000000000000       -0.0000000000000000     
   274.73274594925590       -0.0000000000000000       -0.0000000000000000     
   274.77304301514567       -0.0000000000000000       -0.0000000000000000     
   274.80327032442892       -0.0000000000000000       -0.0000000000000000     
   274.82329855965037       -0.0000000000000000       -0.0000000000000000     
   274.83304196848502       -0.0000000000000000       -0.0000000000000000     
   274.83245881416707       -0.0000000000000000       -0.0000000000000000     
   274.82155159505243       -0.0000000000000000       -0.0000000000000000     
   274.80036703146976       -0.0000000000000000       -0.0000000000000000     
   274.76899581997031       -0.0000000000000000       -0.0000000000000000     
   274.72757215704127       -0.0000000000000000       -0.0000000000000000     
   274.67627303627233       -0.0000000000000000       -0.0000000000000000     
   274.61531732482922       -0.0000000000000000       -0.0000000000000000     
   274.54496462686825       -0.0000000000000000       -0.0000000000000000     
   274.46551394319852       -0.0000000000000000       -0.0000000000000000     
   274.37730213803496       -0.0000000000000000       -0.0000000000000000     
   274.28070222506886       -0.0000000000000000       -0.0000000000000000     
   274.17612148630599       -0.0000000000000000       -0.0000000000000000     
   274.06399943814955       -0.0000000000000000       -0.0000000000000000     
   273.94480566005745       -0.0000000000000000       -0.0000000000000000     
   273.81903750174553       -0.0000000000000000       -0.0000000000000000     
   273.68721768536113       -0.0000000000000000       -0.0000000000000000     
   273.54989181930114       -0.0000000000000000       -0.0000000000000000     
   273.40762584041261       -0.0000000000000000       -0.0000000000000000     
   273.26100340118717       -0.0000000000000000       -0.0000000000000000     
   273.11062321827052       -0.0000000000000000       -0.0000000000000000     
   272.95709639814834       -0.0000000000000000       -0.0000000000000000     
   272.80104375528020       -0.0000000000000000       -0.0000000000000000     
   272.64309313722015       -0.0000000000000000       -0.0000000000000000     
   272.48387677044258       -0.0000000000000000       -0.0000000000000000     
   272.32402863966303        0.0000000000000000       -0.0000000000000000     
   272.16418191245810        0.0000000000000000       -0.0000000000000000     
   272.00496641994886        0.0000000000000000       -0.0000000000000000     
   271.84700620323861        0.0000000000000000       -0.0000000000000000     
   271.69091713421273        0.0000000000000000       -0.0000000000000000     
   271.53730461822272        0.0000000000000000       -0.0000000000000000     
   271.38676138511829        0.0000000000000000       -0.0000000000000000     
   271.23986537405301        0.0000000000000000       -0.0000000000000000     
   271.09717771650958        0.0000000000000000       -0.0000000000000000     
   270.95924082105751        0.0000000000000000       -0.0000000000000000     
   270.82657656249245        0.0000000000000000       -0.0000000000000000     
   270.69968457721228        0.0000000000000000       -0.0000000000000000     
   270.57904066597399        0.0000000000000000       -0.0000000000000000     
   270.46509530453909        0.0000000000000000       -0.0000000000000000     
   270.35827226217015        0.0000000000000000       -0.0000000000000000     
   270.25896732747719        0.0000000000000000       -0.0000000000000000     
   270.16754714073613        0.0000000000000000       -0.0000000000000000     
   270.08434813150552        0.0000000000000000       -0.0000000000000000     
   270.00967556015536        0.0000000000000000       -0.0000000000000000     
   269.94380266178649        0.0000000000000000       -0.0000000000000000     
   269.88696989094927        0.0000000000000000       -0.0000000000000000     
   269.83938426557825        0.0000000000000000       -0.0000000000000000     
   269.80121880861873        0.0000000000000000       -0.0000000000000000     
   269.77261208593893        0.0000000000000000       -0.0000000000000000     
   269.75366783928519        0.0000000000000000       -0.0000000000000000     
   269.74445471324213        0.0000000000000000       -0.0000000000000000     
   269.74500607539460        0.0000000000000000       -0.0000000000000000     
   269.75531992914892        0.0000000000000000       -0.0000000000000000     
   269.77535891894422        0.0000000000000000       -0.0000000000000000     
   269.80505042787263        0.0000000000000000       -0.0000000000000000     
   269.84428676800479        0.0000000000000000       -0.0000000000000000     
   269.89292546399560        0.0000000000000000       -0.0000000000000000     
   269.95078963080152        0.0000000000000000       -0.0000000000000000     
   270.01766844657021        0.0000000000000000       -0.0000000000000000     
   270.09331772196845        0.0000000000000000       -0.0000000000000000     
   270.17746056736866        0.0000000000000000       -0.0000000000000000     
   270.26978815942721        0.0000000000000000       -0.0000000000000000     
   270.36996060864436        0.0000000000000000       -0.0000000000000000     
   270.47760792948969        0.0000000000000000       -0.0000000000000000     
   270.59233111460469        0.0000000000000000       -0.0000000000000000     
   270.71370331444876        0.0000000000000000       -0.0000000000000000     
   270.84127112353184        0.0000000000000000       -0.0000000000000000     
   270.97455597407463        0.0000000000000000       -0.0000000000000000     
   271.11305563754814        0.0000000000000000       -0.0000000000000000     
   271.25624583407495        0.0000000000000000       -0.0000000000000000     
   271.40358194911312        0.0000000000000000       -0.0000000000000000     
   271.55450085620669        0.0000000000000000       -0.0000000000000000     
   271.70842284385895        0.0000000000000000       -0.0000000000000000     
   271.86475364378646        0.0000000000000000       -0.0000000000000000     
   272.02288655693798        0.0000000000000000       -0.0000000000000000     
   272.18220467272602        0.0000000000000000        0.0000000000000000     
   273.28739149070816        8.5884022712810175        0.0000000000000000     
   273.46746656048629        8.5898207078381041       0.26994599082922499     
   273.64521976189093        8.5826780378343503       0.53997633289559144     
   273.81992180269890        8.5669478047870307       0.80981499581268301     
   273.99086028083713        8.5426132280610521        1.0791830194065264     
   274.15734330030170        8.5096675320925694        1.3477989294184498     
   274.31870289800128        8.4681142469406261        1.6153791861564288     
   274.47429825429776        8.4179674766081831        1.8816386631889446     
   274.62351866281273        8.3592521319618545        2.1462911527988338     
   274.76578623825657        8.2920041255138965        2.4090498945938030     
   274.90055834457706        8.2162705258018818        2.6696281234111168     
   275.02732972953919        8.1321096696007782        2.9277396324607041     
   275.14563435586717        8.0395912307187203        3.1830993475263156     
   275.25504692321988        7.9387962446504368        3.4354239079892470     
   275.35518407944517        7.8298170888805521        3.6844322504527578     
   275.44570532367993        7.7127574191319841        3.9298461908250157     
   275.52631360784960        7.5877320623330364        4.1713910008601562     
   275.59675564687745        7.4548668675210523        4.4087959753548427     
   275.65682195137720        7.3142985163033050        4.6417949864449897     
   275.70634659969562        7.1661742948508582        4.8701270217356960     
   275.74520676883293        7.0106518297032743        5.0935367033184686     
   275.77332204596172        6.8478987899086992        5.3117747850740926     
   275.79065354393958        6.6780925582131623        5.5245986260178235     
   275.79720284536290        6.5014198741454665        5.7317726378067384     
   275.79301080031399        6.3180764519213630        5.9330687048883561     
   275.77815620303562        6.1282665761164186        6.1282665761170527     
   275.75275437232500        5.9322026780352495        6.3171542269932957     
   275.71695565952894        5.7301048956416105        6.4995281919845205     
   275.67094390665727        5.5222006198151368        6.6751938666605266     
   275.61493487538803        5.3087240295735754        6.8439657796178182     
   275.54917466566184        5.0899156187511938        7.0056678343739049     
   275.47393814021490        4.8660217164615851        7.1601335215837993     
   275.38952736885983        4.6372940035037429        7.3072061020675507     
   275.29627010364749        4.4039890266999251        7.4467387612412432     
   275.19451829330688        4.1663677129886505        7.5785947356174770     
   275.08464664263226        3.9246948849408625        7.7026474120886412     
   274.96705121981927        3.6792387792258787        7.8187804007313542     
   274.84214811222574        3.4302705694294238        7.9268875818786428     
   274.71037212866821        3.1780638945202302        8.0268731282020163     
   274.57217554424631        2.9228943941758252        8.1186515025344868     
   274.42802688181342        2.6650392521115451        8.2021474321518628     
   274.27840972264806        2.4047767485086817        8.2772958602186986     
   274.12382153762007        2.1423858226059243        8.3440418751004604     
   273.96477252922375        1.8781456465002246        8.4023406182487861     
   273.80178447425908        1.6123352111956528        8.4521571713846839     
   273.63538955668173        1.3452329259380051        8.4934664237369422     
   273.46612918021458        1.0771162318749723        8.5262529201415553     
   273.29455275068364       0.80826123108256687        8.5505106908721213     
   273.12121641870328       0.53894233199410213        8.5662430641511769     
   272.94668177425814       0.26943191225476842        8.5734624623863649     
   272.77151448587642       -8.8646350422298204E-013   8.5721901832815277     
   272.59628287843884      -0.26908602549235933        8.5624561670884862     
   272.42155644517129      -0.53756171286022447        8.5442987513872239     
   272.24790429100040      -0.80516579663816334        8.5177644149069476     
   272.07589350616604       -1.0716404334107970        8.4829075120241537     
   271.90608747075049       -1.3367314155588883        8.4397899996924259     
   271.73904409256261       -1.6001883621352095        8.3884811586683004     
   271.57531398257345       -1.8617648865763059        8.3290573109939992     
   271.41543857380742       -2.1212187411357903        8.2616015357778156     
   271.25994819122360       -2.3783119381216258        8.1862033853728349     
   271.10936008164373       -2.6328108482303332        8.1029586040914836     
   270.96417641418026       -2.8844862764920052        8.0119688516047045     
   270.82488226287859       -3.1331135165681498        7.9133414331585614     
   270.69194358437545       -3.3784723843754336        7.8071890386958422     
   270.56580520430794       -3.6203472322390380        7.6936294928955924     
   270.44688882695499       -3.8585269450049098        7.5727855180388142     
   270.33559108316160       -4.0928049197570235        7.4447845114743458     
   270.23228163197928       -4.3229790309896696        7.3097583392961916     
   270.13730133165507       -4.5488515832720369        7.1678431476536932     
   270.05096049562491       -4.7702292536093314        7.0191791929012206     
   269.97353724900120       -4.9869230258479567        6.8639106915564376     
   269.90527600071891       -5.1987481195890659        6.7021856907794159     
   269.84638604600190       -5.4055239161623243        6.5341559598112324     
   269.79704031315754       -5.6070738842679324        6.3599769025247017     
   269.75737426789226       -5.8032255079179169        6.1798074909445875     
   269.72748498738753       -5.9938102192964671        5.9938102192946046     
   269.70743041528323       -6.1786633391124779        5.8021510778278076     
   269.69722880748600       -6.3576240269354418        5.6049995453994130     
   269.69685837738257       -6.5305352438886306        5.4025285994518075     
   269.70625714757210       -6.6972437299215732        5.1949147418038981     
   269.72532301367488       -6.8575999976988244        4.9823380383759268     
   269.75391402411469       -7.0114583449252557        4.7649821707399873     
   269.79184887803086       -7.1586768866820947        4.5430344971700176     
   269.83890764167171       -7.2991176090755614        4.3166861206764446     
   269.89483268174433       -7.4326464452038872        4.0861319613532103     
   269.95932981229322       -7.5591333741331779        3.8515708302418727     
   270.03206964974567       -7.6784525432415753        3.6132055018311893     
   270.11268916882415       -7.7904824139491167        3.3712427822631268     
   270.20079345010572       -7.8951059305025320        3.1258935703092829     
   270.29595760813777       -7.9922107111350833        2.8773729082161563     
   270.39772888720069       -8.0816892605763986        2.6259000195935598     
   270.50562891010173       -8.1634392025520857        2.3716983316378921     
   270.61915606378693       -8.2373635305925248        2.1149954791391119     
   270.73778800412197       -8.3033708751706765        1.8560232879158456     
   270.86098426092997       -8.3613757849142427        1.5950177355539821     
   270.98818892332912       -8.4112990193940185        1.3322188875873471     
   271.11883338459160       -8.4530678507809274        1.0678708075502279     
   271.25233912518962       -8.4866163714937954       0.80222143964617820     
   271.38812051241302       -8.5118858048308557       0.53552246311026552     
   271.52558759496026       -8.5288248154931328       0.26802911768707421     
   271.66414887120953       -8.5373898168677460       -1.7657294885356916E-012
   271.80321401051509       -8.5375452719457403      -0.26830316907510654     
   271.94219650779092       -8.5292639848001564      -0.53661580552404664     
   272.08051625287334       -8.5125273796453733      -0.80467075105396291     
   272.21760199765771       -8.4873257646354805       -1.0721985885178937     
   272.35289370576680       -8.4536585777339486       -1.3389279825309917     
   272.48584477148694       -8.4115346121950552       -1.6045860435927157     
   272.61592409688888       -8.3609722194345970       -1.8688987138129314     
   272.74261801836678       -8.3019994873275849       -2.1315911721429432     
   272.86543207624726       -8.2346543922476503       -2.3923882568553942     
   272.98389262358870       -8.1589849234511469       -2.6510149028986625     
   273.09754827275185       -8.0750491787013665       -2.9071965916722831     
   273.20597118073050       -7.9829154303191832       -3.1606598107290189     
   273.30875817651889       -7.8826621611296384       -3.4111325209045873     
   273.40553173592951       -7.7743780700442890       -3.6583446284049210     
   273.49594081119449       -7.6581620472717358       -3.9020284594396011     
   273.57966152435540       -7.5341231193796059       -4.1419192350743970     
   273.65639773483616       -7.4023803646378576       -4.3777555440810634     
   273.72588149265709       -7.2630627992527739       -4.6092798116833151     
   273.78787338949070       -7.1163092352533459       -4.8362387622294500     
   273.84216282014000       -6.9622681109161562       -5.0583838739587756     
   273.88856816706459       -6.8010972947128518       -5.2754718241664404     
   273.92693692026717       -6.6329638638373920       -5.4872649232046928     
   273.95714574422078       -6.4580438584214779       -5.6935315358842038     
   273.97910050257309       -6.2765220125788490       -5.8940464889539754     
   273.99273625014712       -6.0885914634366811       -6.0885914634398315     
   273.99801720029819       -5.8944534393188563       -6.2769553707083370     
   273.99493667404033       -5.6943169282462023       -6.4589347111947077     
   273.98351703554630       -5.4883983279164461       -6.6343339147898677     
   273.96380961673140       -5.2769210783263274       -6.8029656619249357     
   273.93589463167871       -5.0601152782030843       -6.9646511844226273     
   273.89988107972255       -4.8382172864257642       -7.1192205452074129     
   273.85590663411682       -4.6114693096410715       -7.2665128959824159     
   273.80413751143033       -4.3801189773147504       -7.4063767119953825     
   273.74476831517296       -4.1444189055098821       -7.5386700030314113     
   273.67802184571053       -3.9046262507465355       -7.6632604997916349     
   273.60414886729495       -3.6610022553736461       -7.7800258148471677     
   273.52342782207080       -3.4138117859708195       -7.8888535774015054     
   273.43616448020771       -3.1633228663938846       -7.9896415411536488     
   273.34269151490531       -2.9098062071793618       -8.0822976646330282     
   273.24336799089139       -2.6535347331270729       -8.1667401634759624     
   273.13857875521768       -2.3947831109819564       -8.2428975342350199     
   273.02873371962022       -2.1338272792327060       -8.3107085494561286     
   272.91426702445511       -1.8709439821305103       -8.3701222239245165     
   272.79563607522005       -1.6064103101032454       -8.4210977521677730     
   272.67332044389912       -1.3405032487931046       -8.4636044175107159     
   272.54782062880702       -1.0734992389770308       -8.4976214731998780     
   272.41965666820937      -0.80567374963423799       -8.5231379963516503     
   272.28936660473977      -0.53730086640249264       -8.5401527157238810     
   272.15750479947604      -0.26865289761160299       -8.5486738145615320     
   272.02464009644052        2.6559052418629292E-012  -8.5487187100181483     
   271.89135384022723       0.26839017391778158       -8.5403138109019885     
   271.75823775137701       0.53625280494052840       -8.5234942557329703     
   271.62589166601333       0.80332621116350955       -8.4983036333204751     
   271.49492114806333        1.0693521253172837       -8.4647936882767514     
   271.36593498410775        1.3340759443102272       -8.4230240140627668     
   271.23954257250472        1.5972469500114437       -8.3730617363183999     
   271.11635121989519        1.8586185006150668       -8.3149811893539116     
   270.99696335950694        2.1179481922256915       -8.2488635887714263     
   270.88197370682934        2.3749979906182213       -8.1747967032419186     
   270.77196636920576        2.6295343334485857       -8.0928745284826977     
   270.66751192671171        2.8813282035182994       -8.0031969664625731     
   270.56916450232586        3.1301551740226747       -7.9058695128052916     
   270.47745883988563        3.3757954270338302       -7.8010029552677027     
   270.39290740864010        3.6180337467817627       -7.6887130860377297     
   270.31599755338789        3.8566594895954913       -7.5691204304298481     
   270.24718870922607        4.0914665326467814       -7.4423499943549203     
   270.18690969983470        4.3222532038987582       -7.3085310327079354     
   270.13555613801850        4.5488221958960722       -7.1677968405556305     
   270.09348794689140        4.7709804662402124       -7.0202845687171109     
   270.06102701968024        4.9885391277694806       -6.8661350650198765     
   270.03845503559057        5.2013133316061921       -6.7054927421819066     
   270.02601144858392        5.4091221463413532       -6.5385054729238998     
   270.02389166521419        5.6117884366981841       -6.3653245125555573     
   270.03224542689634        5.8091387450481236       -6.1861044489118893     
   270.05117541112094        6.0010031791466174       -6.0010031791422707     
   270.08073606516996        6.1872153094086313       -5.8101819124813741     