 VARIABLES = "x_1", "x_2", "x_3"
 ZONE F = POINT , I =         201  , J =         101
   4202.0864949347533        0.0000000000000000        0.0000000000000000     
   4202.0864949347533        0.0000000000000000        0.0000000000000000     
   4202.0864949347533        0.0000000000000000        0.0000000000000000     
   4202.0864949347533        0.0000000000000000        0.0000000000000000     
   4202.0864949347533        0.0000000000000000        0.0000000000000000     
   4202.0864949347533        0.0000000000000000        0.0000000000000000     
   4202.0864949347533        0.0000000000000000        0.0000000000000000     
   4202.0864949347533        0.0000000000000000        0.0000000000000000     
   4202.0864949347533        0.0000000000000000        0.0000000000000000     
   4202.0864949347533        0.0000000000000000        0.0000000000000000     
   4202.0864949347533        0.0000000000000000        0.0000000000000000     
   4202.0864949347533        0.0000000000000000        0.0000000000000000     
   4202.0864949347533        0.0000000000000000        0.0000000000000000     
   4202.0864949347533        0.0000000000000000        0.0000000000000000     
   4202.0864949347533        0.0000000000000000        0.0000000000000000     
   4202.0864949347533        0.0000000000000000        0.0000000000000000     
   4202.0864949347533        0.0000000000000000        0.0000000000000000     
   4202.0864949347533        0.0000000000000000        0.0000000000000000     
   4202.0864949347533        0.0000000000000000        0.0000000000000000     
   4202.0864949347533        0.0000000000000000        0.0000000000000000     
   4202.0864949347533        0.0000000000000000        0.0000000000000000     
   4202.0864949347533        0.0000000000000000        0.0000000000000000     
   4202.0864949347533        0.0000000000000000        0.0000000000000000     
   4202.0864949347533        0.0000000000000000        0.0000000000000000     
   4202.0864949347533        0.0000000000000000        0.0000000000000000     
   4202.0864949347533        0.0000000000000000        0.0000000000000000     
   4202.0864949347533        0.0000000000000000        0.0000000000000000     
   4202.0864949347533        0.0000000000000000        0.0000000000000000     
   4202.0864949347533        0.0000000000000000        0.0000000000000000     
   4202.0864949347533        0.0000000000000000        0.0000000000000000     
   4202.0864949347533        0.0000000000000000        0.0000000000000000     
   4202.0864949347533        0.0000000000000000        0.0000000000000000     
   4202.0864949347533        0.0000000000000000        0.0000000000000000     
   4202.0864949347533        0.0000000000000000        0.0000000000000000     
   4202.0864949347533        0.0000000000000000        0.0000000000000000     
   4202.0864949347533        0.0000000000000000        0.0000000000000000     
   4202.0864949347533        0.0000000000000000        0.0000000000000000     
   4202.0864949347533        0.0000000000000000        0.0000000000000000     
   4202.0864949347533        0.0000000000000000        0.0000000000000000     
   4202.0864949347533        0.0000000000000000        0.0000000000000000     
   4202.0864949347533        0.0000000000000000        0.0000000000000000     
   4202.0864949347533        0.0000000000000000        0.0000000000000000     
   4202.0864949347533        0.0000000000000000        0.0000000000000000     
   4202.0864949347533        0.0000000000000000        0.0000000000000000     
   4202.0864949347533        0.0000000000000000        0.0000000000000000     
   4202.0864949347533        0.0000000000000000        0.0000000000000000     
   4202.0864949347533        0.0000000000000000        0.0000000000000000     
   4202.0864949347533        0.0000000000000000        0.0000000000000000     
   4202.0864949347533        0.0000000000000000        0.0000000000000000     
   4202.0864949347533        0.0000000000000000        0.0000000000000000     
   4202.0864949347533       -0.0000000000000000        0.0000000000000000     
   4202.0864949347533       -0.0000000000000000        0.0000000000000000     
   4202.0864949347533       -0.0000000000000000        0.0000000000000000     
   4202.0864949347533       -0.0000000000000000        0.0000000000000000     
   4202.0864949347533       -0.0000000000000000        0.0000000000000000     
   4202.0864949347533       -0.0000000000000000        0.0000000000000000     
   4202.0864949347533       -0.0000000000000000        0.0000000000000000     
   4202.0864949347533       -0.0000000000000000        0.0000000000000000     
   4202.0864949347533       -0.0000000000000000        0.0000000000000000     
   4202.0864949347533       -0.0000000000000000        0.0000000000000000     
   4202.0864949347533       -0.0000000000000000        0.0000000000000000     
   4202.0864949347533       -0.0000000000000000        0.0000000000000000     
   4202.0864949347533       -0.0000000000000000        0.0000000000000000     
   4202.0864949347533       -0.0000000000000000        0.0000000000000000     
   4202.0864949347533       -0.0000000000000000        0.0000000000000000     
   4202.0864949347533       -0.0000000000000000        0.0000000000000000     
   4202.0864949347533       -0.0000000000000000        0.0000000000000000     
   4202.0864949347533       -0.0000000000000000        0.0000000000000000     
   4202.0864949347533       -0.0000000000000000        0.0000000000000000     
   4202.0864949347533       -0.0000000000000000        0.0000000000000000     
   4202.0864949347533       -0.0000000000000000        0.0000000000000000     
   4202.0864949347533       -0.0000000000000000        0.0000000000000000     
   4202.0864949347533       -0.0000000000000000        0.0000000000000000     
   4202.0864949347533       -0.0000000000000000        0.0000000000000000     
   4202.0864949347533       -0.0000000000000000        0.0000000000000000     
   4202.0864949347533       -0.0000000000000000        0.0000000000000000     
   4202.0864949347533       -0.0000000000000000        0.0000000000000000     
   4202.0864949347533       -0.0000000000000000        0.0000000000000000     
   4202.0864949347533       -0.0000000000000000        0.0000000000000000     
   4202.0864949347533       -0.0000000000000000        0.0000000000000000     
   4202.0864949347533       -0.0000000000000000        0.0000000000000000     
   4202.0864949347533       -0.0000000000000000        0.0000000000000000     
   4202.0864949347533       -0.0000000000000000        0.0000000000000000     
   4202.0864949347533       -0.0000000000000000        0.0000000000000000     
   4202.0864949347533       -0.0000000000000000        0.0000000000000000     
   4202.0864949347533       -0.0000000000000000        0.0000000000000000     
   4202.0864949347533       -0.0000000000000000        0.0000000000000000     
   4202.0864949347533       -0.0000000000000000        0.0000000000000000     
   4202.0864949347533       -0.0000000000000000        0.0000000000000000     
   4202.0864949347533       -0.0000000000000000        0.0000000000000000     
   4202.0864949347533       -0.0000000000000000        0.0000000000000000     
   4202.0864949347533       -0.0000000000000000        0.0000000000000000     
   4202.0864949347533       -0.0000000000000000        0.0000000000000000     
   4202.0864949347533       -0.0000000000000000        0.0000000000000000     
   4202.0864949347533       -0.0000000000000000        0.0000000000000000     
   4202.0864949347533       -0.0000000000000000        0.0000000000000000     
   4202.0864949347533       -0.0000000000000000        0.0000000000000000     
   4202.0864949347533       -0.0000000000000000        0.0000000000000000     
   4202.0864949347533       -0.0000000000000000        0.0000000000000000     
   4202.0864949347533       -0.0000000000000000        0.0000000000000000     
   4202.0864949347533       -0.0000000000000000       -0.0000000000000000     
   4202.0864949347533       -0.0000000000000000       -0.0000000000000000     
   4202.0864949347533       -0.0000000000000000       -0.0000000000000000     
   4202.0864949347533       -0.0000000000000000       -0.0000000000000000     
   4202.0864949347533       -0.0000000000000000       -0.0000000000000000     
   4202.0864949347533       -0.0000000000000000       -0.0000000000000000     
   4202.0864949347533       -0.0000000000000000       -0.0000000000000000     
   4202.0864949347533       -0.0000000000000000       -0.0000000000000000     
   4202.0864949347533       -0.0000000000000000       -0.0000000000000000     
   4202.0864949347533       -0.0000000000000000       -0.0000000000000000     
   4202.0864949347533       -0.0000000000000000       -0.0000000000000000     
   4202.0864949347533       -0.0000000000000000       -0.0000000000000000     
   4202.0864949347533       -0.0000000000000000       -0.0000000000000000     
   4202.0864949347533       -0.0000000000000000       -0.0000000000000000     
   4202.0864949347533       -0.0000000000000000       -0.0000000000000000     
   4202.0864949347533       -0.0000000000000000       -0.0000000000000000     
   4202.0864949347533       -0.0000000000000000       -0.0000000000000000     
   4202.0864949347533       -0.0000000000000000       -0.0000000000000000     
   4202.0864949347533       -0.0000000000000000       -0.0000000000000000     
   4202.0864949347533       -0.0000000000000000       -0.0000000000000000     
   4202.0864949347533       -0.0000000000000000       -0.0000000000000000     
   4202.0864949347533       -0.0000000000000000       -0.0000000000000000     
   4202.0864949347533       -0.0000000000000000       -0.0000000000000000     
   4202.0864949347533       -0.0000000000000000       -0.0000000000000000     
   4202.0864949347533       -0.0000000000000000       -0.0000000000000000     
   4202.0864949347533       -0.0000000000000000       -0.0000000000000000     
   4202.0864949347533       -0.0000000000000000       -0.0000000000000000     
   4202.0864949347533       -0.0000000000000000       -0.0000000000000000     
   4202.0864949347533       -0.0000000000000000       -0.0000000000000000     
   4202.0864949347533       -0.0000000000000000       -0.0000000000000000     
   4202.0864949347533       -0.0000000000000000       -0.0000000000000000     
   4202.0864949347533       -0.0000000000000000       -0.0000000000000000     
   4202.0864949347533       -0.0000000000000000       -0.0000000000000000     
   4202.0864949347533       -0.0000000000000000       -0.0000000000000000     
   4202.0864949347533       -0.0000000000000000       -0.0000000000000000     
   4202.0864949347533       -0.0000000000000000       -0.0000000000000000     
   4202.0864949347533       -0.0000000000000000       -0.0000000000000000     
   4202.0864949347533       -0.0000000000000000       -0.0000000000000000     
   4202.0864949347533       -0.0000000000000000       -0.0000000000000000     
   4202.0864949347533       -0.0000000000000000       -0.0000000000000000     
   4202.0864949347533       -0.0000000000000000       -0.0000000000000000     
   4202.0864949347533       -0.0000000000000000       -0.0000000000000000     
   4202.0864949347533       -0.0000000000000000       -0.0000000000000000     
   4202.0864949347533       -0.0000000000000000       -0.0000000000000000     
   4202.0864949347533       -0.0000000000000000       -0.0000000000000000     
   4202.0864949347533       -0.0000000000000000       -0.0000000000000000     
   4202.0864949347533       -0.0000000000000000       -0.0000000000000000     
   4202.0864949347533       -0.0000000000000000       -0.0000000000000000     
   4202.0864949347533       -0.0000000000000000       -0.0000000000000000     
   4202.0864949347533       -0.0000000000000000       -0.0000000000000000     
   4202.0864949347533        0.0000000000000000       -0.0000000000000000     
   4202.0864949347533        0.0000000000000000       -0.0000000000000000     
   4202.0864949347533        0.0000000000000000       -0.0000000000000000     
   4202.0864949347533        0.0000000000000000       -0.0000000000000000     
   4202.0864949347533        0.0000000000000000       -0.0000000000000000     
   4202.0864949347533        0.0000000000000000       -0.0000000000000000     
   4202.0864949347533        0.0000000000000000       -0.0000000000000000     
   4202.0864949347533        0.0000000000000000       -0.0000000000000000     
   4202.0864949347533        0.0000000000000000       -0.0000000000000000     
   4202.0864949347533        0.0000000000000000       -0.0000000000000000     
   4202.0864949347533        0.0000000000000000       -0.0000000000000000     
   4202.0864949347533        0.0000000000000000       -0.0000000000000000     
   4202.0864949347533        0.0000000000000000       -0.0000000000000000     
   4202.0864949347533        0.0000000000000000       -0.0000000000000000     
   4202.0864949347533        0.0000000000000000       -0.0000000000000000     
   4202.0864949347533        0.0000000000000000       -0.0000000000000000     
   4202.0864949347533        0.0000000000000000       -0.0000000000000000     
   4202.0864949347533        0.0000000000000000       -0.0000000000000000     
   4202.0864949347533        0.0000000000000000       -0.0000000000000000     
   4202.0864949347533        0.0000000000000000       -0.0000000000000000     
   4202.0864949347533        0.0000000000000000       -0.0000000000000000     
   4202.0864949347533        0.0000000000000000       -0.0000000000000000     
   4202.0864949347533        0.0000000000000000       -0.0000000000000000     
   4202.0864949347533        0.0000000000000000       -0.0000000000000000     
   4202.0864949347533        0.0000000000000000       -0.0000000000000000     
   4202.0864949347533        0.0000000000000000       -0.0000000000000000     
   4202.0864949347533        0.0000000000000000       -0.0000000000000000     
   4202.0864949347533        0.0000000000000000       -0.0000000000000000     
   4202.0864949347533        0.0000000000000000       -0.0000000000000000     
   4202.0864949347533        0.0000000000000000       -0.0000000000000000     
   4202.0864949347533        0.0000000000000000       -0.0000000000000000     
   4202.0864949347533        0.0000000000000000       -0.0000000000000000     
   4202.0864949347533        0.0000000000000000       -0.0000000000000000     
   4202.0864949347533        0.0000000000000000       -0.0000000000000000     
   4202.0864949347533        0.0000000000000000       -0.0000000000000000     
   4202.0864949347533        0.0000000000000000       -0.0000000000000000     
   4202.0864949347533        0.0000000000000000       -0.0000000000000000     
   4202.0864949347533        0.0000000000000000       -0.0000000000000000     
   4202.0864949347533        0.0000000000000000       -0.0000000000000000     
   4202.0864949347533        0.0000000000000000       -0.0000000000000000     
   4202.0864949347533        0.0000000000000000       -0.0000000000000000     
   4202.0864949347533        0.0000000000000000       -0.0000000000000000     
   4202.0864949347533        0.0000000000000000       -0.0000000000000000     
   4202.0864949347533        0.0000000000000000       -0.0000000000000000     
   4202.0864949347533        0.0000000000000000       -0.0000000000000000     
   4202.0864949347533        0.0000000000000000       -0.0000000000000000     
   4202.0864949347533        0.0000000000000000       -0.0000000000000000     
   4202.0864949347533        0.0000000000000000       -0.0000000000000000     
   4202.0864949347533        0.0000000000000000       -0.0000000000000000     
   4202.0864949347533        0.0000000000000000       -0.0000000000000000     
   4202.0864949347533        0.0000000000000000        0.0000000000000000     
   4196.8041256660617        131.88988298502403        0.0000000000000000     
   4197.0207695023992        131.83160823674916        4.1429751933711945     
   4197.2310289877314        131.64301793232596        8.2822766694790815     
   4197.4341565618506        131.32426266342324        12.413797730792586     
   4197.6294393661083        130.87562387472587        16.533436217841860     
   4197.8162022402203        130.29751387241586        20.637098810362474     
   4197.9938105518304        129.59047567719284        24.720705345783230     
   4198.1616728449289        128.75518271954724        28.780193148082144     
   4198.3192432940223        127.79243837543287        32.811521359795407     
   4198.4660239518771        126.70317534094667        36.810675269760658     
   4198.6015667797437        125.48845484510645        40.773670629011633     
   4198.7254754499245        124.14946570031069        44.696557947116844     
   4198.8374069118227        122.68752319057899        48.575426761173716     
   4198.9370727137202        121.10406779818852        52.406409869632185     
   4199.0242400738480        119.40066376984603        56.185687523127548     
   4199.0987326955819        117.57899752405869        59.909491564554934     
   4199.1604313229136        115.64087590188467        63.574109510712887     
   4199.2092740337812        113.58822426375777        67.175888567985126     
   4199.2452562701055        111.42308443557340        70.711239574711712     
   4199.2684306048759        109.14761250770782        74.176640863127048     
   4199.2789062479196        106.76407649109812        77.568642034006899     
   4199.2768482934471        104.27485383494658        80.883867637468484     
   4199.2624767137040        101.68242881101725        84.119020753705769     
   4199.2360651045237        98.989389769867941        87.270886467810428     
   4199.1979391897285        96.198426274699244        90.336335233227345     
   4199.1484750926256        93.312326118804833        93.312326118814497     
   4199.0880973840576        90.333972232872242        96.195909934922327     
   4199.0172769174987        87.266339488603393        98.984232234366544     
   4198.9365284628229        84.112491405307878        101.67453618464215     
   4198.8464081512939        80.875576766257367        104.26416530820875     
   4198.7475107452519        77.558826151687171        106.75056608816301     
   4198.6404667467341        74.165548395379957        109.13129043710011     
   4198.5259393600472        70.699126971779137        111.40399802744922     
   4198.4046213238526        67.163016320545225        113.56645848204124     
   4198.2772316289102        63.560738115398287        115.61655342412904     
   4198.1445121380193        59.895877483978559        117.55227838652674     
   4198.0072241250082        56.172079185310864        119.37174457996075     
   4197.8661447498826        52.393043751280210        121.07318052112984     
   4197.7220634873011        48.562523598313554        122.65493352134934     
   4197.5757785256565        44.684319115225691        124.11547103700622     
   4197.4280931538451        40.762274732923927        125.45338188337010     
   4197.2798121527539        36.800274981382813        126.66737731359515     
   4197.1317382081461        32.802240538998433        127.75629196500077     
   4196.9846683613177        28.772124279117559        128.71908467493958     
   4196.8393905134317        24.713907318211316        129.55483916874431     
   4196.6966799989459        20.631595069832365        130.26276462239483     
   4196.5572962429696        16.529213308160163        130.84219610265993     
   4196.4219795166919        12.410804244606807        131.29259488754471     
   4196.2914478043213        8.2804226206269060        131.61354866991965     
   4196.1663937942549        4.1421318195552725        131.80477164721884     
   4196.0474820062946       -1.3636478727612580E-011   131.86610450007220     
   4195.9353460659095       -4.1419037470854931        131.79751426268740     
   4195.8305861356521       -8.2795132154248439        131.59909408771983     
   4195.7337665128816       -12.408768873331820        131.27106290826390     
   4195.6454134020150       -16.525621624593729        130.81376499947444     
   4195.5660128685558       -20.626036539383648        130.22766944218034     
   4195.4960089811821       -24.705996554067340        129.51336949068900     
   4195.4358021471699       -28.761506139044410        128.67158184680275     
   4195.3857476454978       -32.788594933886110        127.70314584187871     
   4195.3461543609737       -36.783321349141886        126.60902252856758     
   4195.3172837217553       -40.741776134267518        125.39029368366174     
   4195.2993488417733       -44.660085911181916        124.04816072328134     
   4195.2925138685496       -48.534416672985266        122.58394353141910     
   4195.2968935360996       -52.360977247369668        120.99907920266715     
   4195.3125529217123       -56.136022724227018        119.29512069975230     
   4195.3395074045729       -59.855857846905870        117.47373542632133     
   4195.3777228234439       -63.516840366493398        115.53670371524358     
   4195.4271158298297       -67.115384358400505        113.48591723253713     
   4195.4875544323759       -70.647963500409318        111.32337729687875     
   4195.5588587276034       -74.111114311205853        109.05119311453178     
   4195.6408018114107       -77.501439348266786        106.67157992941516     
   4195.7331108652897       -80.815610363801881        104.18685708795056     
   4195.8354684105916       -84.050371417274150        101.59944601825667     
   4195.9475137237578       -87.202541942829740        98.911868123216067     
   4196.0688444050165       -90.269019769774587        96.126742586920756     
   4196.1990180925823       -93.246784094031767        93.246784094002791     
   4196.3375543141492       -96.132898398310218        90.274800461387116     
   4196.4839364671325       -98.924513318512524        87.213690182052531     
   4196.6376139188415       -101.61886945370527        84.066439880462084     
   4196.7980042176059       -104.21330011678134        80.836121679424238     
   4196.9644954056866       -106.70523402275025        77.525890478265623     
   4197.1364484246378       -109.09219791141253        74.138981142340398     
   4197.3131996037719       -111.37181910100298        70.678705604065954     
   4197.4940632222097       -113.54182796922898        67.148449875858063     
   4197.6783341351002       -115.60006035798766        63.551670975542585     
   4197.8652904544369       -117.54445989791610        59.891893765039541     
   4198.0541962750767       -119.37308024882107        56.172707703352984     
   4198.2443044365182       -121.08408725194255        52.397763515148625     
   4198.4348593111099       -122.67576098993406        48.570769776463898     
   4198.6250996094332       -124.14649775039346        44.695489419368300     
   4198.8142611937656       -125.49481188875079        40.775736157672767     
   4199.0015798905761       -126.71933758631218        36.815370836075985     
   4199.1862942932512       -127.81883049927930        32.818297705428392     
   4199.3676485463047       -128.79216929460350        28.788460627090888     
   4199.5448951025783       -129.63835706860013        24.729839209662781     
   4199.7172974450768       -130.35652264433716        20.646444881649810     
   4199.8841327652599       -130.94592174392494        16.542316903936332     
   4200.0446945898493       -131.40593803197109        12.421518326214752     
   4200.1982953483721       -131.73608402662313        8.2881318918070264     
   4200.3442688739087       -131.93600187480482        4.1462558955866466     
   4200.4819728296843       -132.00546398845484       -2.7301780217617750E-011
   4200.6107910544251       -131.94437353880429       -4.1465189857813511     
   4200.7301358195537       -131.75276480597194       -8.2891813575439990     
   4200.8394499916267       -131.43080338142545       -12.423868793825037     
   4200.9382090935569       -130.97878622113558       -16.546468652970344     
   4201.0259232584967       -130.39714154755424       -20.652878283957790     
   4201.1021390704655       -129.68642859886151       -24.739009344552041     
   4201.1664412860800       -128.84733722425528       -28.800792120430678     
   4201.2184544320289       -127.88068732440320       -32.834179838767533     
   4201.2578442732101       -126.78742813652588       -36.835152969659624     
   4201.2843191467400       -125.56863736394669       -40.799723508705128     
   4201.2976311573475       -124.22552015031053       -44.723939233987338     
   4201.2975772299988       -122.75940789905206       -48.603887930691855     
   4201.2840000159231       -121.17175693907248       -52.435701576582964     
   4201.2567886485285       -119.46414703796401       -56.215560481588668     
   4201.2158793461267       -117.63827976450521       -59.939697374796133     
   4201.1612558586612       -115.69597670252537       -63.604401432235818     
   4201.0929497561365       -113.63917751861356       -67.206022238937024     
   4201.0110405567530       -111.46993788651457       -70.740973678867860     
   4200.9156556932576       -109.19042727141401       -74.205737746528428     
   4200.8069703164010       -106.80292657766425       -77.596868274147681     
   4200.6852069348843       -104.30982566383955       -80.910994568639296     
   4200.5506348916324       -101.71362072933093       -84.144824952703217     
   4200.4035696767405       -99.016911576998950       -87.295150204708989     
   4200.2443720778938       -96.222398756688122       -90.358846892271984     
   4200.0734471696451       -93.332880594678329       -93.332880594726618     
   4199.8912431433755       -90.351250114391974       -96.214309010010709     
   4199.6982499803871       -87.280491853903087       -99.000284941805660     
   4199.4949979710354       -84.123678585991087       -101.68805916311752     
   4199.2820560834207       -80.883967946658387       -104.27498315284191     
   4199.0600301856903       -77.564598978177770       -106.75851170222113     
   4198.8295611265412       -74.168888592854145       -109.13620538847800     
   4198.5913226790863       -70.700227963780748       -111.40573291329052     
   4198.3460193538131       -67.162078848928246       -113.56487330416077     
   4198.0943840868722       -63.557969854944382       -115.61151797711329     
   4197.8371758104977       -59.891492647041993       -117.54367265955032     
   4197.5751769128683       -56.166298111334548       -119.35945917246814     
   4197.3091905952770       -52.386092475920606       -121.05711707162197     
   4197.0400381348809       -48.554633396943146       -122.63500514759002     
   4196.7685560618820       -44.675726015737013       -124.09160278505071     
   4196.4955932603580       -40.753218993048954       -125.42551118192812     
   4196.2220080024490       -36.791000526149929       -126.63545442939510     
   4195.9486649259597       -32.792994354482701       -127.72028045403232     
   4195.6764319658187       -28.763155759276785       -128.67896182373843     
   4195.4061772502064       -24.705467562344836       -129.51059641925764     
   4195.1387659723950       -20.623936129024081       -130.21440797343999     
   4194.8750572496429       -16.522587379975011       -130.78974648057584     
   4194.6159009807416       -12.405462816270148       -131.23608847834603     
   4194.3621347139106       -8.2766155619253770       -131.55303720509991     
   4194.1145805369197       -4.1401064277338477       -131.74032263532024     
   4193.8740420014410        4.0946776174083228E-011  -131.79780139625038     
   4193.6413010936094        4.1396392428525228       -131.72545656874721     
   4193.4171152627850        8.2747507819894714       -131.52339737548053     
   4193.2022145205146        12.401281876968731       -131.19185875963359     
   4192.9972986215134        16.515191347853062       -130.73120085725785     
   4192.8030343383725        20.612453319423928       -130.14190836641154     
   4192.6200528415065        24.689060925428457       -129.42458981615690     
   4192.4489471955894        28.741029971378850       -128.57997673841450     
   4192.2902699834149        32.764402554643020       -127.60892274556831     
   4192.1445310677927        36.755250640792852       -126.51240251658957     
   4192.0121955016839        40.709679595400260       -125.29151069430156     
   4191.8936815963034        44.623831670658703       -123.94746069624000     
   4191.7893591564653        48.493889446385943       -122.48158344138234     
   4191.6995478918543        52.316079225107067       -120.89532599482061     
   4191.6245160123672        56.086674381037867       -119.19025013224530     
   4191.5644790149863        59.801998662886483       -117.36803082588682     
   4191.5195986690014        63.458429450451547       -115.43045465333942     
   4191.4899822056659        67.052400965038601       -113.37941813046055     
   4191.4756817176303        70.580407433719586       -111.21692596931369     
   4191.4766937726727        74.039006207445610       -108.94508926189152     
   4191.4929592454673        77.424820832968848       -106.56612359013944     
   4191.5243633702212        80.734544078458370       -104.08234706258150     
   4191.5707360161559        83.964940912584879       -101.49617827765393     
   4191.6318521868898        87.112851436725180       -98.810134213657250     
   4191.7074327438386        90.175193769777280       -96.026828045073614     
   4191.7971453528007        93.148966884903885       -93.148966884836412     
   4191.9006056519111        96.031253397319190       -90.179349452015217     