 VARIABLES = "x_1", "x_2", "x_3"
 ZONE F = POINT , I =         201  , J =         101
   1204.6671443591124        0.0000000000000000        0.0000000000000000     
   1204.6649285465903        0.0000000000000000        0.0000000000000000     
   1204.6625922313951        0.0000000000000000        0.0000000000000000     
   1204.6601446359166        0.0000000000000000        0.0000000000000000     
   1204.6575954216394        0.0000000000000000        0.0000000000000000     
   1204.6549546509852        0.0000000000000000        0.0000000000000000     
   1204.6522327475702        0.0000000000000000        0.0000000000000000     
   1204.6494404550433        0.0000000000000000        0.0000000000000000     
   1204.6465887946583        0.0000000000000000        0.0000000000000000     
   1204.6436890217603        0.0000000000000000        0.0000000000000000     
   1204.6407525813454        0.0000000000000000        0.0000000000000000     
   1204.6377910628787        0.0000000000000000        0.0000000000000000     
   1204.6348161545463        0.0000000000000000        0.0000000000000000     
   1204.6318395971186        0.0000000000000000        0.0000000000000000     
   1204.6288731376151        0.0000000000000000        0.0000000000000000     
   1204.6259284829428        0.0000000000000000        0.0000000000000000     
   1204.6230172537025        0.0000000000000000        0.0000000000000000     
   1204.6201509383347        0.0000000000000000        0.0000000000000000     
   1204.6173408477962        0.0000000000000000        0.0000000000000000     
   1204.6145980709346        0.0000000000000000        0.0000000000000000     
   1204.6119334307491        0.0000000000000000        0.0000000000000000     
   1204.6093574416998        0.0000000000000000        0.0000000000000000     
   1204.6068802682371        0.0000000000000000        0.0000000000000000     
   1204.6045116847158        0.0000000000000000        0.0000000000000000     
   1204.6022610368523        0.0000000000000000        0.0000000000000000     
   1204.6001372048695        0.0000000000000000        0.0000000000000000     
   1204.5981485684863        0.0000000000000000        0.0000000000000000     
   1204.5963029738775        0.0000000000000000        0.0000000000000000     
   1204.5946077027429        0.0000000000000000        0.0000000000000000     
   1204.5930694435981        0.0000000000000000        0.0000000000000000     
   1204.5916942654133        0.0000000000000000        0.0000000000000000     
   1204.5904875936867        0.0000000000000000        0.0000000000000000     
   1204.5894541890621        0.0000000000000000        0.0000000000000000     
   1204.5885981285635        0.0000000000000000        0.0000000000000000     
   1204.5879227895273        0.0000000000000000        0.0000000000000000     
   1204.5874308362902        0.0000000000000000        0.0000000000000000     
   1204.5871242096907        0.0000000000000000        0.0000000000000000     
   1204.5870041194185        0.0000000000000000        0.0000000000000000     
   1204.5870710392467        0.0000000000000000        0.0000000000000000     
   1204.5873247051679        0.0000000000000000        0.0000000000000000     
   1204.5877641164304        0.0000000000000000        0.0000000000000000     
   1204.5883875394850        0.0000000000000000        0.0000000000000000     
   1204.5891925148162        0.0000000000000000        0.0000000000000000     
   1204.5901758666348        0.0000000000000000        0.0000000000000000     
   1204.5913337153950        0.0000000000000000        0.0000000000000000     
   1204.5926614930847        0.0000000000000000        0.0000000000000000     
   1204.5941539612295        0.0000000000000000        0.0000000000000000     
   1204.5958052315407        0.0000000000000000        0.0000000000000000     
   1204.5976087891252        0.0000000000000000        0.0000000000000000     
   1204.5995575181662        0.0000000000000000        0.0000000000000000     
   1204.6016437299752       -0.0000000000000000        0.0000000000000000     
   1204.6038591933045       -0.0000000000000000        0.0000000000000000     
   1204.6061951667962       -0.0000000000000000        0.0000000000000000     
   1204.6086424334499       -0.0000000000000000        0.0000000000000000     
   1204.6111913369662       -0.0000000000000000        0.0000000000000000     
   1204.6138318198246       -0.0000000000000000        0.0000000000000000     
   1204.6165534629474       -0.0000000000000000        0.0000000000000000     
   1204.6193455267908       -0.0000000000000000        0.0000000000000000     
   1204.6221969937069       -0.0000000000000000        0.0000000000000000     
   1204.6250966114033       -0.0000000000000000        0.0000000000000000     
   1204.6280329373299       -0.0000000000000000        0.0000000000000000     
   1204.6309943838278       -0.0000000000000000        0.0000000000000000     
   1204.6339692638464       -0.0000000000000000        0.0000000000000000     
   1204.6369458370607       -0.0000000000000000        0.0000000000000000     
   1204.6399123562032       -0.0000000000000000        0.0000000000000000     
   1204.6428571134256       -0.0000000000000000        0.0000000000000000     
   1204.6457684865106       -0.0000000000000000        0.0000000000000000     
   1204.6486349847482       -0.0000000000000000        0.0000000000000000     
   1204.6514452942990       -0.0000000000000000        0.0000000000000000     
   1204.6541883228604       -0.0000000000000000        0.0000000000000000     
   1204.6568532434640       -0.0000000000000000        0.0000000000000000     
   1204.6594295372267       -0.0000000000000000        0.0000000000000000     
   1204.6619070348941       -0.0000000000000000        0.0000000000000000     
   1204.6642759569970       -0.0000000000000000        0.0000000000000000     
   1204.6665269524808       -0.0000000000000000        0.0000000000000000     
   1204.6686511356390       -0.0000000000000000        0.0000000000000000     
   1204.6706401212155       -0.0000000000000000        0.0000000000000000     
   1204.6724860575271       -0.0000000000000000        0.0000000000000000     
   1204.6741816574872       -0.0000000000000000        0.0000000000000000     
   1204.6757202273923       -0.0000000000000000        0.0000000000000000     
   1204.6770956933733       -0.0000000000000000        0.0000000000000000     
   1204.6783026253920       -0.0000000000000000        0.0000000000000000     
   1204.6793362587005       -0.0000000000000000        0.0000000000000000     
   1204.6801925126670       -0.0000000000000000        0.0000000000000000     
   1204.6808680069055       -0.0000000000000000        0.0000000000000000     
   1204.6813600746307       -0.0000000000000000        0.0000000000000000     
   1204.6816667731991       -0.0000000000000000        0.0000000000000000     
   1204.6817868917856       -0.0000000000000000        0.0000000000000000     
   1204.6817199561699       -0.0000000000000000        0.0000000000000000     
   1204.6814662306101       -0.0000000000000000        0.0000000000000000     
   1204.6810267167973       -0.0000000000000000        0.0000000000000000     
   1204.6804031498980       -0.0000000000000000        0.0000000000000000     
   1204.6795979916969       -0.0000000000000000        0.0000000000000000     
   1204.6786144208663       -0.0000000000000000        0.0000000000000000     
   1204.6774563204062       -0.0000000000000000        0.0000000000000000     
   1204.6761282622988       -0.0000000000000000        0.0000000000000000     
   1204.6746354894401       -0.0000000000000000        0.0000000000000000     
   1204.6729838949245       -0.0000000000000000        0.0000000000000000     
   1204.6711799987584       -0.0000000000000000        0.0000000000000000     
   1204.6692309220978       -0.0000000000000000        0.0000000000000000     
   1204.6671443591124       -0.0000000000000000       -0.0000000000000000     
   1204.6649285465903       -0.0000000000000000       -0.0000000000000000     
   1204.6625922313951       -0.0000000000000000       -0.0000000000000000     
   1204.6601446359166       -0.0000000000000000       -0.0000000000000000     
   1204.6575954216391       -0.0000000000000000       -0.0000000000000000     
   1204.6549546509850       -0.0000000000000000       -0.0000000000000000     
   1204.6522327475700       -0.0000000000000000       -0.0000000000000000     
   1204.6494404550431       -0.0000000000000000       -0.0000000000000000     
   1204.6465887946581       -0.0000000000000000       -0.0000000000000000     
   1204.6436890217608       -0.0000000000000000       -0.0000000000000000     
   1204.6407525813456       -0.0000000000000000       -0.0000000000000000     
   1204.6377910628789       -0.0000000000000000       -0.0000000000000000     
   1204.6348161545461       -0.0000000000000000       -0.0000000000000000     
   1204.6318395971186       -0.0000000000000000       -0.0000000000000000     
   1204.6288731376151       -0.0000000000000000       -0.0000000000000000     
   1204.6259284829430       -0.0000000000000000       -0.0000000000000000     
   1204.6230172537025       -0.0000000000000000       -0.0000000000000000     
   1204.6201509383350       -0.0000000000000000       -0.0000000000000000     
   1204.6173408477962       -0.0000000000000000       -0.0000000000000000     
   1204.6145980709346       -0.0000000000000000       -0.0000000000000000     
   1204.6119334307491       -0.0000000000000000       -0.0000000000000000     
   1204.6093574416998       -0.0000000000000000       -0.0000000000000000     
   1204.6068802682375       -0.0000000000000000       -0.0000000000000000     
   1204.6045116847160       -0.0000000000000000       -0.0000000000000000     
   1204.6022610368523       -0.0000000000000000       -0.0000000000000000     
   1204.6001372048693       -0.0000000000000000       -0.0000000000000000     
   1204.5981485684863       -0.0000000000000000       -0.0000000000000000     
   1204.5963029738778       -0.0000000000000000       -0.0000000000000000     
   1204.5946077027429       -0.0000000000000000       -0.0000000000000000     
   1204.5930694435981       -0.0000000000000000       -0.0000000000000000     
   1204.5916942654133       -0.0000000000000000       -0.0000000000000000     
   1204.5904875936867       -0.0000000000000000       -0.0000000000000000     
   1204.5894541890623       -0.0000000000000000       -0.0000000000000000     
   1204.5885981285637       -0.0000000000000000       -0.0000000000000000     
   1204.5879227895273       -0.0000000000000000       -0.0000000000000000     
   1204.5874308362902       -0.0000000000000000       -0.0000000000000000     
   1204.5871242096907       -0.0000000000000000       -0.0000000000000000     
   1204.5870041194180       -0.0000000000000000       -0.0000000000000000     
   1204.5870710392467       -0.0000000000000000       -0.0000000000000000     
   1204.5873247051677       -0.0000000000000000       -0.0000000000000000     
   1204.5877641164302       -0.0000000000000000       -0.0000000000000000     
   1204.5883875394850       -0.0000000000000000       -0.0000000000000000     
   1204.5891925148162       -0.0000000000000000       -0.0000000000000000     
   1204.5901758666348       -0.0000000000000000       -0.0000000000000000     
   1204.5913337153950       -0.0000000000000000       -0.0000000000000000     
   1204.5926614930850       -0.0000000000000000       -0.0000000000000000     
   1204.5941539612297       -0.0000000000000000       -0.0000000000000000     
   1204.5958052315405       -0.0000000000000000       -0.0000000000000000     
   1204.5976087891249       -0.0000000000000000       -0.0000000000000000     
   1204.5995575181657       -0.0000000000000000       -0.0000000000000000     
   1204.6016437299756        0.0000000000000000       -0.0000000000000000     
   1204.6038591933047        0.0000000000000000       -0.0000000000000000     
   1204.6061951667962        0.0000000000000000       -0.0000000000000000     
   1204.6086424334499        0.0000000000000000       -0.0000000000000000     
   1204.6111913369657        0.0000000000000000       -0.0000000000000000     
   1204.6138318198246        0.0000000000000000       -0.0000000000000000     
   1204.6165534629472        0.0000000000000000       -0.0000000000000000     
   1204.6193455267908        0.0000000000000000       -0.0000000000000000     
   1204.6221969937069        0.0000000000000000       -0.0000000000000000     
   1204.6250966114030        0.0000000000000000       -0.0000000000000000     
   1204.6280329373303        0.0000000000000000       -0.0000000000000000     
   1204.6309943838278        0.0000000000000000       -0.0000000000000000     
   1204.6339692638467        0.0000000000000000       -0.0000000000000000     
   1204.6369458370607        0.0000000000000000       -0.0000000000000000     
   1204.6399123562032        0.0000000000000000       -0.0000000000000000     
   1204.6428571134256        0.0000000000000000       -0.0000000000000000     
   1204.6457684865104        0.0000000000000000       -0.0000000000000000     
   1204.6486349847485        0.0000000000000000       -0.0000000000000000     
   1204.6514452942993        0.0000000000000000       -0.0000000000000000     
   1204.6541883228606        0.0000000000000000       -0.0000000000000000     
   1204.6568532434640        0.0000000000000000       -0.0000000000000000     
   1204.6594295372267        0.0000000000000000       -0.0000000000000000     
   1204.6619070348938        0.0000000000000000       -0.0000000000000000     
   1204.6642759569970        0.0000000000000000       -0.0000000000000000     
   1204.6665269524808        0.0000000000000000       -0.0000000000000000     
   1204.6686511356390        0.0000000000000000       -0.0000000000000000     
   1204.6706401212150        0.0000000000000000       -0.0000000000000000     
   1204.6724860575271        0.0000000000000000       -0.0000000000000000     
   1204.6741816574875        0.0000000000000000       -0.0000000000000000     
   1204.6757202273925        0.0000000000000000       -0.0000000000000000     
   1204.6770956933733        0.0000000000000000       -0.0000000000000000     
   1204.6783026253920        0.0000000000000000       -0.0000000000000000     
   1204.6793362587002        0.0000000000000000       -0.0000000000000000     
   1204.6801925126670        0.0000000000000000       -0.0000000000000000     
   1204.6808680069055        0.0000000000000000       -0.0000000000000000     
   1204.6813600746307        0.0000000000000000       -0.0000000000000000     
   1204.6816667731987        0.0000000000000000       -0.0000000000000000     
   1204.6817868917856        0.0000000000000000       -0.0000000000000000     
   1204.6817199561699        0.0000000000000000       -0.0000000000000000     
   1204.6814662306103        0.0000000000000000       -0.0000000000000000     
   1204.6810267167973        0.0000000000000000       -0.0000000000000000     
   1204.6804031498980        0.0000000000000000       -0.0000000000000000     
   1204.6795979916972        0.0000000000000000       -0.0000000000000000     
   1204.6786144208663        0.0000000000000000       -0.0000000000000000     
   1204.6774563204065        0.0000000000000000       -0.0000000000000000     
   1204.6761282622986        0.0000000000000000       -0.0000000000000000     
   1204.6746354894401        0.0000000000000000       -0.0000000000000000     
   1204.6729838949245        0.0000000000000000       -0.0000000000000000     
   1204.6711799987584        0.0000000000000000       -0.0000000000000000     
   1204.6692309220975        0.0000000000000000       -0.0000000000000000     
   1204.6671443591124        0.0000000000000000        0.0000000000000000     
   1169.4730238071938        36.752170376689620        0.0000000000000000     
   1169.2407100546361        36.726738247868248        1.1541842470821038     
   1169.0437905596327        36.666185783304869        2.3068408780172813     
   1168.8823523579899        36.570582727004783        3.4569378701465050     
   1168.7564384231775        36.440026506802624        4.6034458991643890     
   1168.6660490594786        36.274642195693481        5.7453389021381041     
   1168.6111434453053        36.074582477966615        6.8815946484477397     
   1168.5916413086891        35.840027618391730        8.0111953204763378     
   1168.6074247158281        35.571185432506198        9.1331281056164215     
   1168.6583399526096        35.268291255885693        10.246385800878913     
   1168.7441994783014        34.931607910155101        11.349967431095383     
   1168.8647839300493        34.561425663409125        12.442878881400382     
   1169.0198441565296        34.158062182666747        13.524133544372974     
   1169.2091032589965        33.721862475977765        14.592752981910113     
   1169.4322586181040        33.253198821832989        15.647767601605107     
   1169.6889838852462        32.752470683601935        16.688217347116655     
   1169.9789309177440        32.220104606828301        17.713152401742953     
   1170.3017316380085        31.656554097354277        18.721633904164992     
   1170.6569997978311        31.062299478413379        19.712734675098279     
   1171.0443326301652        30.437847725027058        20.685539953395136     
   1171.4633123721876        29.783732274256188        21.639148139974832     
   1171.9135076449991        29.100512810090958        22.572671547826381     
   1172.3944746770801        28.388775022007220        23.485237156232902     
   1172.9057583605004        27.649130336467554        24.375987367305214     
   1173.4468931308961        26.882215620897668        25.244080762888807     
   1174.0174036643148        26.088692859916222        26.088692859918925     
   1174.6168053862282        25.269248803836135        26.909016862345002     
   1175.2446047902247        24.424594589680311        27.704264407823622     
   1175.9002995661415        23.555465335163078        28.473666307487207     
   1176.5833785396601        22.662619706273862        29.216473277231056     
   1177.2933214275843        21.746839459259963        29.931956659118434     
   1178.0295984151999        20.808928957937070        30.619409131680822     
   1178.7916695641979        19.849714667357187        31.278145408081009     
   1179.5789840616246        18.870044624932287        31.907502921307774     
   1180.3909793221740        17.870787890147337        32.506842495775679     
   1181.2270799578689        16.852833973998333        33.075549004909149     
   1182.0866966307156        15.817092249259508        33.613032014489320     
   1182.9692248052966        14.764491342621120        34.118726411731835     
   1183.8740434194392        13.695978509645636        34.592093020239012     
   1184.8005134920936        12.612518993369825        35.032619201125691     
   1185.7479766883002        11.515095367234830        35.439819440751648     
   1186.7157538616916        10.404706862859943        35.813235925600424     
   1187.7031435953018        9.2823686829926206        36.152439104923232     
   1188.7094207615658        8.1491112997711799        36.457028241813390     
   1189.7338351222936        7.0059797382323410        36.726631953391355     
   1190.7756099890787        5.8540328447881711        36.960908740761063     
   1191.8339409640957        4.6943425401906200        37.159547509345281     
   1192.9079947805099        3.5279930563018485        37.322268080120232     
   1193.9969082608395        2.3560801557991975        37.448821692150858     
   1195.0997874105315        1.1797103337698633        37.538991496677134     
   1196.2157066628033       -3.8875084487232445E-012   37.592593042823026     
   1197.3437082894197       -1.1819253593988259        37.609474754794043     
   1198.4828019906158       -2.3649320423777214        37.589518400202174     
   1199.6319646757543       -3.5478790149962904        37.532639548909209     
   1200.7901404446495       -4.7296188205382226        37.438788021518000     
   1201.9562407777419       -5.9089985153330051        37.307948326368852     
   1203.1291449414862       -7.0848606327814219        37.140140083618498     
   1204.3077006135125       -8.2560441770475581        36.935418434699862     
   1205.4907247302424       -9.4213856477725315        36.693874435182515     
   1206.6770045578260       -10.579720097025266        36.415635428785443     
   1207.8652989854083       -11.729882219529737        36.100865400036120     
   1209.0543400379590       -12.870707476997987        35.749765302830156     
   1210.2428346041465       -14.001033257156303        35.362573361926884     
   1211.4294663730518       -15.119700067779416        34.939565344222373     
   1212.6128979719085       -16.225552765749349        34.481054796475540     
   1213.7917732955418       -17.317441820833206        33.987393246030202     
   1214.9647200167337       -18.394224613532334        33.458970360975677     
   1216.1303522654400       -19.454766765997764        32.896214066127023     
   1217.2872734635603       -20.497943504637927        32.299590611181479     
   1218.4340793008773       -21.522641052668135        31.669604587423905     
   1219.5693608368188       -22.527758050472805        31.006798889410266     
   1220.6917077118421       -23.512207001274039        30.311754618155767     
   1221.7997114515485       -24.474915739229804        29.585090922491769     
   1222.8919688460392       -25.414828916724868        28.827464775433523     
   1223.9670853865825       -26.330909507272697        28.039570682616567     
   1225.0236787413482       -27.222140320121188        27.222140320112729     
   1226.0603822517564       -28.087525522351683        26.375942099224023     
   1227.0758484309445       -28.926092163985281        25.501780656172379     
   1228.0687524458854       -29.736891701363508        24.600496264951662     
   1229.0377955648817       -30.519001513857287        23.672964171983228     
   1229.9817085524357       -31.271526408779739        22.720093851613328     
   1230.8992549938723       -31.993600109237153        21.742828181905871     
   1231.7892345325997       -32.684386719551483        20.742142540615269     
   1232.6504860034688       -33.343082162825965        19.719043821664663     
   1233.4818904463523       -33.968915585205927        18.674569372902766     
   1234.2823739848325       -34.561150721408438        17.609785856362688     
   1235.0509105557057       -35.119087216158789        16.525788032694503     
   1235.7865244759057       -35.642061896276196        15.423697471885669     
   1236.4882928344070       -36.129449988297431        14.304661192815837     
   1237.1553476976922       -36.580666276711860        13.169850234611520     
   1237.7868781184104       -36.995166198104336        12.020458163166321     
   1238.3821319379881       -37.372446866761202        10.857699516573055     
   1238.9404173750813       -37.712048027586924        9.6828081935684711     
   1239.4611043929556       -38.013552932502563        8.4970357894192219     
   1239.9436258400731       -38.276589136848315        7.3016498839744610     
   1240.3874783594310       -38.500829212690128        6.0979322868747232     
   1240.7922230634113       -38.685991376327628        4.8871772451351623     
   1241.1574859722136       -38.831840027718719        3.6706896185132187     
   1241.4829582151897       -38.938186199966523        2.4497830282236248     
   1241.7683959957060       -39.004887917457751        1.2257779846771244     
   1242.0136203214372       -39.031850461689771       -8.0726885887479369E-012
   1242.2185165032863       -39.019026544276976       -1.2262223089411863     
   1242.3830334273914       -38.966416387077444       -2.4515591210683931     
   1242.5071826059525       -38.874067709828182       -3.6746813097349698     
   1242.5910370138465       -38.742075626114300       -4.8942623335675988     
   1242.6347297192096       -38.570582448922494       -6.1089801141725708     
   1242.6384523173770       -38.359777407438614       -7.3175188953109238     
   1242.6024531786652       -38.109896277136308       -8.5185710784123003     
   1242.5270355216489       -37.821220925571453       -9.7108390295224467     
   1242.4125553245744       -37.494078776634161       -10.893036853043554     
   1242.2594190885745       -37.128842196321727       -12.063892127917713     
   1242.0680814672610       -36.725927803373480       -13.222147602219364     
   1241.8390427781189       -36.285795708353312       -14.366562842458956     
   1241.5728464118731       -35.808948684973856       -15.495915834253271     
   1241.2700761567037       -35.295931277628632       -16.609004531384510     
   1240.9313534547189       -34.747328849231302       -17.704648350645726     
   1240.5573346085835       -34.163766573555762       -18.781689610250805     
   1240.1487079565495       -33.545908376327212       -19.838994909968580     
   1239.7061910343555       -32.894455829331285       -20.875456451518485     
   1239.2305277425839       -32.210147001788037       -21.889993298135572     
   1238.7224855380093       -31.493755273181030       -22.881552572571067     
   1238.1828526673442       -30.746088111640837       -23.849110593138224     
   1237.6124354614394       -29.967985821857841       -24.791673947736648     
   1237.0120557075898       -29.160320266346808       -25.708280506089643     
   1236.3825481169706       -28.323993563704736       -26.598000370704774     
   1235.7247579035047       -27.459936767300338       -27.459936767314549     
   1235.0395384895851       -26.569108527610119       -28.293226875770650     
   1234.3277493530404       -25.652493741177167       -29.097042602548733     
   1233.5902540285763       -24.711102188917717       -29.870591296169998     
   1232.8279182756364       -23.745967166243442       -30.613116406961208     
   1232.0416084232033       -22.758144107206039       -31.323898092653689     
   1231.2321899005287       -21.748709204611611       -32.002253771367130     
   1230.4005259611386       -20.718758027799879       -32.647538623533670     
   1229.5474766057337       -19.669404139539015       -33.259146044296827     
   1228.6738977077764       -18.601777713259697       -33.836508047865031     
   1227.7806403436844       -17.517024151639891       -34.379095625219655     
   1226.8685503276074       -16.416302707364622       -34.886419056468739     
   1225.9384679488176       -15.300785106719045       -35.358028179009864     
   1224.9912279077248       -14.171654176537862       -35.793512612516231     
   1224.0276594446025       -13.030102474925373       -36.192501941599865     
   1223.0485866531044       -11.877330926085550       -36.554665856831996     
   1222.0548289687872       -10.714547459555781       -36.879714254625000     
   1221.0472018209898       -9.5429656541279879       -37.167397296301310     
   1220.0265174346725       -8.3638033867592085       -37.417505426501343     
   1218.9935857671758       -7.1782814868276175       -37.629869350917247     
   1217.9492155633438       -5.9876223961690700       -37.804359973188085     
   1216.8942155110869       -4.7930488354403282       -37.940888290657533     
   1215.8293954782587       -3.5957824774867273       -38.039405248583527     
   1214.7555678107165       -2.3970426285482000       -38.099901552302526     
   1213.6735486706123       -1.1980449183099087       -38.122407436792500     
   1212.5841593933667        1.1839032758176002E-011  -38.106992393051769     
   1211.4882278414148        1.1958877381616653       -38.053764850717407     
   1210.3865897326614        2.3884214483328994       -37.962871816386304     
   1209.2800899217068        3.5764130838703228       -37.834498467178413     
   1208.1695836122510        4.7586846432197953       -37.668867699191885     
   1207.0559374796685        5.9340693949767909       -37.466239630643827     
   1205.9400306836126        7.1014130817272747       -37.226911059667735     
   1204.8227557515606        8.2595751002330271       -36.951214876945485     
   1203.7050193155358        9.4074296554027956       -36.639519433585569     
   1202.5877426857467        10.543866885405608       -36.292227864916548     
   1201.4718622466073        11.667793955235553       -35.909777371140933     
   1200.3583296625100        12.778136116022653       -35.492638456085849     
   1199.2481118827650        13.873837727412178       -35.041314125585657     
   1198.1421909373162        14.953863240399688       -34.556339047335875     
   1197.0415635171598        16.017198138116175       -34.038278674359034     
   1195.9472403357497        17.062849832205952       -33.487728334515900     
   1194.8602452701286        18.089848512625647       -32.905312288776727     
   1193.7816142829818        19.097247948919442       -32.291682761227001     
   1192.7123941292496        20.084126241284185       -31.647518944019478     
   1191.6536408533650        21.049586520032459       -30.973525980690813     
   1190.6064180855326        21.992757592380503       -30.270433931435289     
   1189.5717951477025        22.912794535833704       -29.538996724062542     
   1188.5508449820641        23.808879237803986       -28.779991094462787     
   1187.5446419168343        24.680220881470607       -27.994215520452180     
   1186.5542592859701        25.526056378278181       -27.182489152879452     
   1185.5807669210492        26.345650747851966       -26.345650747832885     
   1184.6252285349906        27.138297446489450       -25.484557603702211     