 VARIABLES = "x_1", "x_2", "x_3"
 ZONE F = POINT , I =         201  , J =         101
   2251.1803915335431        0.0000000000000000        0.0000000000000000     
   2251.1803915335431        0.0000000000000000        0.0000000000000000     
   2251.1803915335431        0.0000000000000000        0.0000000000000000     
   2251.1803915335431        0.0000000000000000        0.0000000000000000     
   2251.1803915335431        0.0000000000000000        0.0000000000000000     
   2251.1803915335431        0.0000000000000000        0.0000000000000000     
   2251.1803915335431        0.0000000000000000        0.0000000000000000     
   2251.1803915335431        0.0000000000000000        0.0000000000000000     
   2251.1803915335431        0.0000000000000000        0.0000000000000000     
   2251.1803915335431        0.0000000000000000        0.0000000000000000     
   2251.1803915335431        0.0000000000000000        0.0000000000000000     
   2251.1803915335431        0.0000000000000000        0.0000000000000000     
   2251.1803915335431        0.0000000000000000        0.0000000000000000     
   2251.1803915335431        0.0000000000000000        0.0000000000000000     
   2251.1803915335431        0.0000000000000000        0.0000000000000000     
   2251.1803915335431        0.0000000000000000        0.0000000000000000     
   2251.1803915335431        0.0000000000000000        0.0000000000000000     
   2251.1803915335431        0.0000000000000000        0.0000000000000000     
   2251.1803915335431        0.0000000000000000        0.0000000000000000     
   2251.1803915335431        0.0000000000000000        0.0000000000000000     
   2251.1803915335431        0.0000000000000000        0.0000000000000000     
   2251.1803915335431        0.0000000000000000        0.0000000000000000     
   2251.1803915335431        0.0000000000000000        0.0000000000000000     
   2251.1803915335431        0.0000000000000000        0.0000000000000000     
   2251.1803915335431        0.0000000000000000        0.0000000000000000     
   2251.1803915335431        0.0000000000000000        0.0000000000000000     
   2251.1803915335431        0.0000000000000000        0.0000000000000000     
   2251.1803915335431        0.0000000000000000        0.0000000000000000     
   2251.1803915335431        0.0000000000000000        0.0000000000000000     
   2251.1803915335431        0.0000000000000000        0.0000000000000000     
   2251.1803915335431        0.0000000000000000        0.0000000000000000     
   2251.1803915335431        0.0000000000000000        0.0000000000000000     
   2251.1803915335431        0.0000000000000000        0.0000000000000000     
   2251.1803915335431        0.0000000000000000        0.0000000000000000     
   2251.1803915335431        0.0000000000000000        0.0000000000000000     
   2251.1803915335431        0.0000000000000000        0.0000000000000000     
   2251.1803915335431        0.0000000000000000        0.0000000000000000     
   2251.1803915335431        0.0000000000000000        0.0000000000000000     
   2251.1803915335431        0.0000000000000000        0.0000000000000000     
   2251.1803915335431        0.0000000000000000        0.0000000000000000     
   2251.1803915335431        0.0000000000000000        0.0000000000000000     
   2251.1803915335431        0.0000000000000000        0.0000000000000000     
   2251.1803915335431        0.0000000000000000        0.0000000000000000     
   2251.1803915335431        0.0000000000000000        0.0000000000000000     
   2251.1803915335431        0.0000000000000000        0.0000000000000000     
   2251.1803915335431        0.0000000000000000        0.0000000000000000     
   2251.1803915335431        0.0000000000000000        0.0000000000000000     
   2251.1803915335431        0.0000000000000000        0.0000000000000000     
   2251.1803915335431        0.0000000000000000        0.0000000000000000     
   2251.1803915335431        0.0000000000000000        0.0000000000000000     
   2251.1803915335431       -0.0000000000000000        0.0000000000000000     
   2251.1803915335431       -0.0000000000000000        0.0000000000000000     
   2251.1803915335431       -0.0000000000000000        0.0000000000000000     
   2251.1803915335431       -0.0000000000000000        0.0000000000000000     
   2251.1803915335431       -0.0000000000000000        0.0000000000000000     
   2251.1803915335431       -0.0000000000000000        0.0000000000000000     
   2251.1803915335431       -0.0000000000000000        0.0000000000000000     
   2251.1803915335431       -0.0000000000000000        0.0000000000000000     
   2251.1803915335431       -0.0000000000000000        0.0000000000000000     
   2251.1803915335431       -0.0000000000000000        0.0000000000000000     
   2251.1803915335431       -0.0000000000000000        0.0000000000000000     
   2251.1803915335431       -0.0000000000000000        0.0000000000000000     
   2251.1803915335431       -0.0000000000000000        0.0000000000000000     
   2251.1803915335431       -0.0000000000000000        0.0000000000000000     
   2251.1803915335431       -0.0000000000000000        0.0000000000000000     
   2251.1803915335431       -0.0000000000000000        0.0000000000000000     
   2251.1803915335431       -0.0000000000000000        0.0000000000000000     
   2251.1803915335431       -0.0000000000000000        0.0000000000000000     
   2251.1803915335431       -0.0000000000000000        0.0000000000000000     
   2251.1803915335431       -0.0000000000000000        0.0000000000000000     
   2251.1803915335431       -0.0000000000000000        0.0000000000000000     
   2251.1803915335431       -0.0000000000000000        0.0000000000000000     
   2251.1803915335431       -0.0000000000000000        0.0000000000000000     
   2251.1803915335431       -0.0000000000000000        0.0000000000000000     
   2251.1803915335431       -0.0000000000000000        0.0000000000000000     
   2251.1803915335431       -0.0000000000000000        0.0000000000000000     
   2251.1803915335431       -0.0000000000000000        0.0000000000000000     
   2251.1803915335431       -0.0000000000000000        0.0000000000000000     
   2251.1803915335431       -0.0000000000000000        0.0000000000000000     
   2251.1803915335431       -0.0000000000000000        0.0000000000000000     
   2251.1803915335431       -0.0000000000000000        0.0000000000000000     
   2251.1803915335431       -0.0000000000000000        0.0000000000000000     
   2251.1803915335431       -0.0000000000000000        0.0000000000000000     
   2251.1803915335431       -0.0000000000000000        0.0000000000000000     
   2251.1803915335431       -0.0000000000000000        0.0000000000000000     
   2251.1803915335431       -0.0000000000000000        0.0000000000000000     
   2251.1803915335431       -0.0000000000000000        0.0000000000000000     
   2251.1803915335431       -0.0000000000000000        0.0000000000000000     
   2251.1803915335431       -0.0000000000000000        0.0000000000000000     
   2251.1803915335431       -0.0000000000000000        0.0000000000000000     
   2251.1803915335431       -0.0000000000000000        0.0000000000000000     
   2251.1803915335431       -0.0000000000000000        0.0000000000000000     
   2251.1803915335431       -0.0000000000000000        0.0000000000000000     
   2251.1803915335431       -0.0000000000000000        0.0000000000000000     
   2251.1803915335431       -0.0000000000000000        0.0000000000000000     
   2251.1803915335431       -0.0000000000000000        0.0000000000000000     
   2251.1803915335431       -0.0000000000000000        0.0000000000000000     
   2251.1803915335431       -0.0000000000000000        0.0000000000000000     
   2251.1803915335431       -0.0000000000000000        0.0000000000000000     
   2251.1803915335431       -0.0000000000000000        0.0000000000000000     
   2251.1803915335431       -0.0000000000000000       -0.0000000000000000     
   2251.1803915335431       -0.0000000000000000       -0.0000000000000000     
   2251.1803915335431       -0.0000000000000000       -0.0000000000000000     
   2251.1803915335431       -0.0000000000000000       -0.0000000000000000     
   2251.1803915335431       -0.0000000000000000       -0.0000000000000000     
   2251.1803915335431       -0.0000000000000000       -0.0000000000000000     
   2251.1803915335431       -0.0000000000000000       -0.0000000000000000     
   2251.1803915335431       -0.0000000000000000       -0.0000000000000000     
   2251.1803915335431       -0.0000000000000000       -0.0000000000000000     
   2251.1803915335431       -0.0000000000000000       -0.0000000000000000     
   2251.1803915335431       -0.0000000000000000       -0.0000000000000000     
   2251.1803915335431       -0.0000000000000000       -0.0000000000000000     
   2251.1803915335431       -0.0000000000000000       -0.0000000000000000     
   2251.1803915335431       -0.0000000000000000       -0.0000000000000000     
   2251.1803915335431       -0.0000000000000000       -0.0000000000000000     
   2251.1803915335431       -0.0000000000000000       -0.0000000000000000     
   2251.1803915335431       -0.0000000000000000       -0.0000000000000000     
   2251.1803915335431       -0.0000000000000000       -0.0000000000000000     
   2251.1803915335431       -0.0000000000000000       -0.0000000000000000     
   2251.1803915335431       -0.0000000000000000       -0.0000000000000000     
   2251.1803915335431       -0.0000000000000000       -0.0000000000000000     
   2251.1803915335431       -0.0000000000000000       -0.0000000000000000     
   2251.1803915335431       -0.0000000000000000       -0.0000000000000000     
   2251.1803915335431       -0.0000000000000000       -0.0000000000000000     
   2251.1803915335431       -0.0000000000000000       -0.0000000000000000     
   2251.1803915335431       -0.0000000000000000       -0.0000000000000000     
   2251.1803915335431       -0.0000000000000000       -0.0000000000000000     
   2251.1803915335431       -0.0000000000000000       -0.0000000000000000     
   2251.1803915335431       -0.0000000000000000       -0.0000000000000000     
   2251.1803915335431       -0.0000000000000000       -0.0000000000000000     
   2251.1803915335431       -0.0000000000000000       -0.0000000000000000     
   2251.1803915335431       -0.0000000000000000       -0.0000000000000000     
   2251.1803915335431       -0.0000000000000000       -0.0000000000000000     
   2251.1803915335431       -0.0000000000000000       -0.0000000000000000     
   2251.1803915335431       -0.0000000000000000       -0.0000000000000000     
   2251.1803915335431       -0.0000000000000000       -0.0000000000000000     
   2251.1803915335431       -0.0000000000000000       -0.0000000000000000     
   2251.1803915335431       -0.0000000000000000       -0.0000000000000000     
   2251.1803915335431       -0.0000000000000000       -0.0000000000000000     
   2251.1803915335431       -0.0000000000000000       -0.0000000000000000     
   2251.1803915335431       -0.0000000000000000       -0.0000000000000000     
   2251.1803915335431       -0.0000000000000000       -0.0000000000000000     
   2251.1803915335431       -0.0000000000000000       -0.0000000000000000     
   2251.1803915335431       -0.0000000000000000       -0.0000000000000000     
   2251.1803915335431       -0.0000000000000000       -0.0000000000000000     
   2251.1803915335431       -0.0000000000000000       -0.0000000000000000     
   2251.1803915335431       -0.0000000000000000       -0.0000000000000000     
   2251.1803915335431       -0.0000000000000000       -0.0000000000000000     
   2251.1803915335431       -0.0000000000000000       -0.0000000000000000     
   2251.1803915335431       -0.0000000000000000       -0.0000000000000000     
   2251.1803915335431        0.0000000000000000       -0.0000000000000000     
   2251.1803915335431        0.0000000000000000       -0.0000000000000000     
   2251.1803915335431        0.0000000000000000       -0.0000000000000000     
   2251.1803915335431        0.0000000000000000       -0.0000000000000000     
   2251.1803915335431        0.0000000000000000       -0.0000000000000000     
   2251.1803915335431        0.0000000000000000       -0.0000000000000000     
   2251.1803915335431        0.0000000000000000       -0.0000000000000000     
   2251.1803915335431        0.0000000000000000       -0.0000000000000000     
   2251.1803915335431        0.0000000000000000       -0.0000000000000000     
   2251.1803915335431        0.0000000000000000       -0.0000000000000000     
   2251.1803915335431        0.0000000000000000       -0.0000000000000000     
   2251.1803915335431        0.0000000000000000       -0.0000000000000000     
   2251.1803915335431        0.0000000000000000       -0.0000000000000000     
   2251.1803915335431        0.0000000000000000       -0.0000000000000000     
   2251.1803915335431        0.0000000000000000       -0.0000000000000000     
   2251.1803915335431        0.0000000000000000       -0.0000000000000000     
   2251.1803915335431        0.0000000000000000       -0.0000000000000000     
   2251.1803915335431        0.0000000000000000       -0.0000000000000000     
   2251.1803915335431        0.0000000000000000       -0.0000000000000000     
   2251.1803915335431        0.0000000000000000       -0.0000000000000000     
   2251.1803915335431        0.0000000000000000       -0.0000000000000000     
   2251.1803915335431        0.0000000000000000       -0.0000000000000000     
   2251.1803915335431        0.0000000000000000       -0.0000000000000000     
   2251.1803915335431        0.0000000000000000       -0.0000000000000000     
   2251.1803915335431        0.0000000000000000       -0.0000000000000000     
   2251.1803915335431        0.0000000000000000       -0.0000000000000000     
   2251.1803915335431        0.0000000000000000       -0.0000000000000000     
   2251.1803915335431        0.0000000000000000       -0.0000000000000000     
   2251.1803915335431        0.0000000000000000       -0.0000000000000000     
   2251.1803915335431        0.0000000000000000       -0.0000000000000000     
   2251.1803915335431        0.0000000000000000       -0.0000000000000000     
   2251.1803915335431        0.0000000000000000       -0.0000000000000000     
   2251.1803915335431        0.0000000000000000       -0.0000000000000000     
   2251.1803915335431        0.0000000000000000       -0.0000000000000000     
   2251.1803915335431        0.0000000000000000       -0.0000000000000000     
   2251.1803915335431        0.0000000000000000       -0.0000000000000000     
   2251.1803915335431        0.0000000000000000       -0.0000000000000000     
   2251.1803915335431        0.0000000000000000       -0.0000000000000000     
   2251.1803915335431        0.0000000000000000       -0.0000000000000000     
   2251.1803915335431        0.0000000000000000       -0.0000000000000000     
   2251.1803915335431        0.0000000000000000       -0.0000000000000000     
   2251.1803915335431        0.0000000000000000       -0.0000000000000000     
   2251.1803915335431        0.0000000000000000       -0.0000000000000000     
   2251.1803915335431        0.0000000000000000       -0.0000000000000000     
   2251.1803915335431        0.0000000000000000       -0.0000000000000000     
   2251.1803915335431        0.0000000000000000       -0.0000000000000000     
   2251.1803915335431        0.0000000000000000       -0.0000000000000000     
   2251.1803915335431        0.0000000000000000       -0.0000000000000000     
   2251.1803915335431        0.0000000000000000       -0.0000000000000000     
   2251.1803915335431        0.0000000000000000       -0.0000000000000000     
   2251.1803915335431        0.0000000000000000        0.0000000000000000     
   2283.1497465212478        71.750871350991190        0.0000000000000000     
   2284.0246892009432        71.742949240992388        2.2546130095822128     
   2284.8581675801611        71.662870747460047        4.5086456675180573     
   2285.6491227753781        71.510635917072008        6.7597453194925325     
   2286.3965894438893        71.286325863414561        9.0055572380324875     
   2287.0996976952520        70.990103003797969        11.243727732838476     
   2287.7576746970412        70.622211150703592        13.471907280231445     
   2288.3698459681550        70.182975456461264        15.687753663040795     
   2288.9356363541933        69.672802210396398        17.888935112163118     
   2289.4545706807121        69.092178488334227        20.073133440977671     
   2289.9262740815311        68.441671654998885        22.238047163816116     
   2290.3504720006190        67.721928720491420        24.381394589750425     
   2290.7269898674967        66.933675552670849        26.500916883083608     
   2291.0557524475116        66.077715947887938        28.594381082102213     
   2291.3367828697219        65.154930563129298        30.659583067875403     
   2291.5702013366049        64.166275713216649        32.694350475162672     
   2291.7562235211381        63.112782037262399        34.696545537816021     
   2291.8951586582471        61.995553039112323        36.664067861432443     
   2291.9874073389265        60.815763506995673        38.594857116423803     
   2292.0334590166958        59.574657818057197        40.486895645121393     
   2292.0338892372984        58.273548133854973        42.338210977016757     
   2291.9893566038013        56.913812493272765        44.146878246755136     
   2291.9005994904114        55.496892809613250        45.911022510038904     
   2291.7684325194114        54.024292778904893        47.628820953159504     
   2291.5937428166685        52.497575706671427        49.298504992455278     
   2291.3774860620897        50.918362260576302        50.918362260581574     
   2291.1206823522975        49.288328156465020        52.486738477075939     
   2290.8244118935381        47.609201785384691        54.002039201297947     
   2290.4898105435459        45.882761789166459        55.462731466417260     
   2290.1180652216690        44.110834592107850        56.867345293708489     
   2289.7104092070463        42.295291896196247        58.214475086983057     
   2289.2681173450192        40.438048147168011        59.502780907542451     
   2288.7925011822672        38.541057978506977        60.730989630568963     
   2288.2849040513024        36.606313640249738        61.897895984375204     
   2287.7466961251134        34.635842419190915        63.002363474409883     
   2287.1792694626542        32.631704056767575        64.043325194358530     
   2286.5840330658434        30.595988170557106        65.019784527084553     
   2285.9624079684622        28.530811684947036        65.930815738521545     
   2285.3158223770865        26.438316276134834        66.775564467954041     
   2284.6457068837781        24.320665836194177        67.553248118405818     
   2283.9534897697636        22.180043960506069        68.263156151092176     
   2283.2405924188056        20.018651462403270        68.904650288086131     
   2282.5084248582998        17.838703918418517        69.477164627494858     
   2281.7583814454210        15.642429247066739        69.980205675543132     
   2280.9918367148653        13.432065323631871        70.413352300017507     
   2280.2101414038902        11.209857632975773        70.776255609535070     
   2279.4146186694261        8.9780569619426700        71.068638763069401     
   2278.6065605111025        6.7389171325036958        71.290296714092847     
   2277.7872244129835        4.4946927763735642        71.441095893580311     
   2276.9578302158020        2.2476371514415319        71.520973835971247     
   2276.1195572303395       -7.3970220920459846E-012   71.529938751999978     
   2275.2735416015121       -2.2459745516430920        71.468069052089277     
   2274.4208739315586       -4.4880500526828584        71.335512823757355     
   2273.5625971695317       -6.7239997476713400        71.132487266217765     
   2272.6997047731438       -8.9516085576338877        70.859278085062158     
   2271.8331391477541       -11.168675023994261        70.516238849605131     
   2270.9637903661123       -13.373013216814273        70.103790315149169     
   2270.0924951712368       -15.562454609042268        69.622419712094597     
   2269.2200362635590       -17.734849918547045        69.072680003480102     
   2268.3471418723016       -19.888070919765475        68.455189112200145     
   2267.4744856097714       -22.020012226804358        67.770629118804891     
   2266.6026866061170       -24.128593049812117        67.019745430456808     
   2265.7323099208666       -26.211758926374177        66.203345921293177     
   2264.8638672264201       -28.267483429587656        65.322300044134053     
   2263.9978177575131       -30.293769854340521        64.377537913180205     
   2263.1345695195419       -32.288652883156772        63.370049357071593     
   2262.2744807475883       -34.250200232777317        62.300882941426202     
   2261.4178616068693       -36.176514282426488        61.171144959751409     
   2260.5649761243617       -38.065733684471525        59.981998391423950     
   2259.7160443403636       -39.916034957918249        58.734661825266500     
   2258.8712446677910       -41.725634064904320        57.430408347112959     
   2258.0307164461788       -43.492787970056781        56.070564389655217     
   2257.1945626764405       -45.215796182273294        54.656508542795414     
   2256.3628529217449       -46.893002278175125        53.189670322699961     
   2255.5356263590702       -48.522795406162615        51.671528897755991     
   2254.7128949653857       -50.103611769690360        50.103611769674792     
   2253.8946468217987       -51.633936088067742        48.487493408065845     
   2253.0808495184710       -53.112303032789455        46.824793836919923     
   2252.2714536426652       -54.537298637110105        45.117177171589283     
   2251.4663963319022       -55.907561676303843        43.366350105036801     
   2250.6656048739087       -57.221785015794147        41.574060342339891     
   2249.8690003348120       -58.478716924107218        39.742094982679689     
   2249.0765011969079       -59.677162347395118        37.872278848317777     
   2248.2880269872699       -60.815984142096433        35.966472760358116     
   2247.5035018785170       -61.894104262154571        34.026571761409834     
   2246.7228582431680       -62.910504897098932        32.054503285601868     
   2245.9460401432266       -63.864229557214543        30.052225276751020     
   2245.1730067369531       -64.754384101982680        28.021724255846465     
   2244.4037355851656       -65.580137707969214        25.965013339382775     
   2243.6382258398826       -66.340723772369728        23.884130210445580     
   2242.8765012987074       -67.035440748492704        21.781135044825422     
   2242.1186133089891       -67.663652909570928        19.658108394803211     
   2241.3646435065334       -68.224791037440028        17.517149033607954     
   2240.6147063744547       -68.718353032807855        15.360371763894287     
   2239.8689516086438       -69.143904444059928        13.189905193916186     
   2239.1275662772869       -69.501078911800704        11.007889485382977     
   2238.3907767628903       -69.789578526617689        8.8164740772693850     
   2237.6588504763604       -70.009174097872929        6.6178153901105210     
   2236.9320973338154       -70.159705331668434        4.4140745155417562     
   2236.2108709880031       -70.241080916500678        2.2074148960401070     
   2235.4955698074054       -70.253278515505016       -1.4530001347256022E-011
   2234.7866375973995       -70.196344664596481       -2.2060090027150578     
   2234.0845640590996       -70.070394576228708       -4.4084555591102106     
   2233.3898849828201       -69.875611848919050       -6.6051900404186732     
   2232.7031821744172       -69.612248083118459       -8.7940720325918456     
   2232.0250831140670       -69.280622404435405       -10.972972604877478     
   2231.3562603483506       -68.881120895650582       -13.139776551111517     
   2230.6974306178058       -68.414195939379653       -15.292384598581870     
   2230.0493537233824       -67.880365473649576       -17.428715579461546     
   2229.4128311364657       -67.280212163046116       -19.546708560002703     
   2228.7887043583373       -66.614382488465353       -21.644324922911558     
   2228.1778530361066       -65.883585758850970       -23.719550398587550     
   2227.5811928432613       -65.088593048626279       -25.770397041205253     
   2226.9996731339938       -64.230236064822904       -27.794905145940938     
   2226.4342743815132       -63.309405948175005       -29.791145103995849     
   2225.8860054114275       -62.327052012676020       -31.757219192440068     
   2225.3559004421390       -61.284180428289396       -33.691263296292355     
   2224.8450159450026       -60.181852851661603       -35.591448560657888     
   2224.3544273376579       -59.021185009802359       -37.455982971164175     
   2223.8852255245938       -57.803345241775084       -39.283112861361154     
   2223.4385132995480       -56.529553003478419       -41.071124346181712     
   2223.0154016247780       -55.201077340596186       -42.818344680987678     
   2222.6170058026555       -53.819235334751468       -44.523143546153364     
   2222.2444415553036       -52.385390527818494       -46.183934257554988     
   2221.8988210282469       -50.900951329226700       -47.799174903742426     
   2221.5812487341559       -49.367369410934593       -49.367369410960144     
   2221.2928174528561       -47.786138094560670       -50.887068537557951     
   2221.0346041037651       -46.158790734934556       -52.356870799684273     
   2220.8076656068429       -44.486899104077409       -53.775423330481871     
   2220.6130347479975       -42.772071779338646       -55.141422675307105     
   2220.4517160646969       -41.015952539108753       -56.453615525764945     
   2220.3246817672675       -39.220218769198524       -57.710799395592979     
   2220.2328677110668       -37.386579882628169       -58.911823241633904     
   2220.1771694343247       -35.516775755202978       -60.055588033309967     
   2220.1584382760775       -33.612575178879375       -61.141047274148903     
   2220.1774775881386       -31.675774334535760       -62.167207479013271     
   2220.2350390546053       -29.708195285375346       -63.133128610747512     
   2220.3318191318399       -27.711684491790667       -64.037924479985762     
   2220.4684556213729       -25.688111348130878       -64.880763111852204     
   2220.6455243875680       -23.639366741421224       -65.660867083240575     
   2220.8635362313316       -21.567361631707389       -66.377513834276400     
   2221.1229339305405       -19.474025653323935       -67.030035957449542     
   2221.4240894572376       -17.361305736033952       -67.617821467753387     
   2221.7673013810395       -15.231164744643852       -68.140314056985005     
   2222.1527924675502       -13.085580135381242       -68.597013335147182     
   2222.5807074799445       -10.926542627021448       -68.987475061652049     
   2223.0511111912519       -8.7560548844785586       -69.311311368757941     
   2223.5639866142183       -6.5761302123254275       -69.568190979378812     
   2224.1192334549596       -4.3887912554900188       -69.757839421091290     
   2224.7166667960450       -2.1960687041863829       -69.880039237832477     
   2225.3560160139091        2.1727203483651929E-011  -69.934630200429694     
   2226.0369239349366        2.1973719602477004       -69.921509516742006     
   2226.7589462338788        4.3940001257175592       -69.840632041816733     
   2227.5215510776266        6.5878346019844916       -69.692010488082829     
   2228.3241190167455        8.7768239733176987       -69.475715635214371     
   2229.1659431265307        10.958916640642041       -69.191876538907721     
   2230.0462293987061        13.132062178358332       -68.840680737426609     
   2230.9640973842602        15.294212713283590       -68.422374454384354     
   2231.9185810872750        17.443324328832901       -67.937262795853897     
   2232.9086301089746        19.577358497403768       -67.385709939528084     
   2233.9331110405583        21.694283543736965       -66.768139313296047     
   2234.9908091027769        23.792076141800479       -66.085033760262803     
   2236.0804300295486        25.868722847490897       -65.336935686916348     
   2237.2006021922434        27.922221669158223       -64.524447190845819     
   2238.3498789606583        29.950583677646275       -63.648230164138752     
   2239.5267412960206        31.951834657200870       -62.709006368333007     
   2240.7296005706908        33.924016798229090       -61.707557476577982     
   2241.9568016086123        35.865190432508093       -60.644725078467403     
   2243.2066259398471        37.773435811029927       -59.521410642847904     
   2244.4772952618973        39.646854924246696       -58.338575433782012     
   2245.7669750998430        41.483573364036964       -57.097240374757824     
   2247.0737786566515        43.281742226265962       -55.798485856184989     
   2248.3957708443445        45.039540052348393       -54.443451481206523     
   2249.7309724860725        46.755174807761350       -53.033335744882372     
   2251.0773646784737        48.426885894983712       -51.569395641870742     
   2252.4328933030420        50.052946197875841       -50.052946197839589     
   2253.7954736746278        51.631664154050227       -48.485359919994167     