 VARIABLES = "x_1", "x_2", "x_3"
 ZONE F = POINT , I =         201  , J =         101
   873.40547473117294        0.0000000000000000        0.0000000000000000     
   873.52124963917584        0.0000000000000000        0.0000000000000000     
   873.63852274861597        0.0000000000000000        0.0000000000000000     
   873.75683274028449        0.0000000000000000        0.0000000000000000     
   873.87571365121175        0.0000000000000000        0.0000000000000000     
   873.99469669797566        0.0000000000000000        0.0000000000000000     
   874.11331212005587        0.0000000000000000        0.0000000000000000     
   874.23109103609693        0.0000000000000000        0.0000000000000000     
   874.34756730573156        0.0000000000000000        0.0000000000000000     
   874.46227938946799        0.0000000000000000        0.0000000000000000     
   874.57477219899499        0.0000000000000000        0.0000000000000000     
   874.68459893017246        0.0000000000000000        0.0000000000000000     
   874.79132287090522        0.0000000000000000        0.0000000000000000     
   874.89451917607164        0.0000000000000000        0.0000000000000000     
   874.99377660170580        0.0000000000000000        0.0000000000000000     
   875.08869919068206        0.0000000000000000        0.0000000000000000     
   875.17890790226261        0.0000000000000000        0.0000000000000000     
   875.26404217801803        0.0000000000000000        0.0000000000000000     
   875.34376143682846        0.0000000000000000        0.0000000000000000     
   875.41774649191495        0.0000000000000000        0.0000000000000000     
   875.48570088314671        0.0000000000000000        0.0000000000000000     
   875.54735211819707        0.0000000000000000        0.0000000000000000     
   875.60245281650987        0.0000000000000000        0.0000000000000000     
   875.65078175045790        0.0000000000000000        0.0000000000000000     
   875.69214477853654        0.0000000000000000        0.0000000000000000     
   875.72637566593903        0.0000000000000000        0.0000000000000000     
   875.75333678839650        0.0000000000000000        0.0000000000000000     
   875.77291971572799        0.0000000000000000        0.0000000000000000     
   875.78504567214452        0.0000000000000000        0.0000000000000000     
   875.78966587096659        0.0000000000000000        0.0000000000000000     
   875.78676172204109        0.0000000000000000        0.0000000000000000     
   875.77634491080585        0.0000000000000000        0.0000000000000000     
   875.75845734858854        0.0000000000000000        0.0000000000000000     
   875.73317099440294        0.0000000000000000        0.0000000000000000     
   875.70058754914658        0.0000000000000000        0.0000000000000000     
   875.66083802376306        0.0000000000000000        0.0000000000000000     
   875.61408218357212        0.0000000000000000        0.0000000000000000     
   875.56050787158017        0.0000000000000000        0.0000000000000000     
   875.50033021419290        0.0000000000000000        0.0000000000000000     
   875.43379071332549        0.0000000000000000        0.0000000000000000     
   875.36115622943737        0.0000000000000000        0.0000000000000000     
   875.28271786054233        0.0000000000000000        0.0000000000000000     
   875.19878972270715        0.0000000000000000        0.0000000000000000     
   875.10970763798719        0.0000000000000000        0.0000000000000000     
   875.01582773614098        0.0000000000000000        0.0000000000000000     
   874.91752497680557        0.0000000000000000        0.0000000000000000     
   874.81519159912216        0.0000000000000000        0.0000000000000000     
   874.70923550604982        0.0000000000000000        0.0000000000000000     
   874.60007859082089        0.0000000000000000        0.0000000000000000     
   874.48815501314414        0.0000000000000000        0.0000000000000000     
   874.37390943288540       -0.0000000000000000        0.0000000000000000     
   874.25779520902142       -0.0000000000000000        0.0000000000000000     
   874.14027257169118       -0.0000000000000000        0.0000000000000000     
   874.02180677515571       -0.0000000000000000        0.0000000000000000     
   873.90286623942245       -0.0000000000000000        0.0000000000000000     
   873.78392068819346       -0.0000000000000000        0.0000000000000000     
   873.66543929068655       -0.0000000000000000        0.0000000000000000     
   873.54788881469449       -0.0000000000000000        0.0000000000000000     
   873.43173179808889       -0.0000000000000000        0.0000000000000000     
   873.31742474573821       -0.0000000000000000        0.0000000000000000     
   873.20541635858831       -0.0000000000000000        0.0000000000000000     
   873.09614580139237       -0.0000000000000000        0.0000000000000000     
   872.99004101529840       -0.0000000000000000        0.0000000000000000     
   872.88751708122800       -0.0000000000000000        0.0000000000000000     
   872.78897463966769       -0.0000000000000000        0.0000000000000000     
   872.69479837219251       -0.0000000000000000        0.0000000000000000     
   872.60535554973069       -0.0000000000000000        0.0000000000000000     
   872.52099465225126       -0.0000000000000000        0.0000000000000000     
   872.44204406424376       -0.0000000000000000        0.0000000000000000     
   872.36881085003449       -0.0000000000000000        0.0000000000000000     
   872.30157961266070       -0.0000000000000000        0.0000000000000000     
   872.24061143971596       -0.0000000000000000        0.0000000000000000     
   872.18614293925270       -0.0000000000000000        0.0000000000000000     
   872.13838536852586       -0.0000000000000000        0.0000000000000000     
   872.09752385805280       -0.0000000000000000        0.0000000000000000     
   872.06371673316198       -0.0000000000000000        0.0000000000000000     
   872.03709493490669       -0.0000000000000000        0.0000000000000000     
   872.01776154192612       -0.0000000000000000        0.0000000000000000     
   872.00579139455078       -0.0000000000000000        0.0000000000000000     
   872.00123082216101       -0.0000000000000000        0.0000000000000000     
   872.00409747452727       -0.0000000000000000        0.0000000000000000     
   872.01438025757864       -0.0000000000000000        0.0000000000000000     
   872.03203937377680       -0.0000000000000000        0.0000000000000000     
   872.05700646697881       -0.0000000000000000        0.0000000000000000     
   872.08918487141091       -0.0000000000000000        0.0000000000000000     
   872.12844996408728       -0.0000000000000000        0.0000000000000000     
   872.17464961972416       -0.0000000000000000        0.0000000000000000     
   872.22760476692736       -0.0000000000000000        0.0000000000000000     
   872.28711004412753       -0.0000000000000000        0.0000000000000000     
   872.35293455346141       -0.0000000000000000        0.0000000000000000     
   872.42482271048857       -0.0000000000000000        0.0000000000000000     
   872.50249518734165       -0.0000000000000000        0.0000000000000000     
   872.58564994659787       -0.0000000000000000        0.0000000000000000     
   872.67396336285105       -0.0000000000000000        0.0000000000000000     
   872.76709142864854       -0.0000000000000000        0.0000000000000000     
   872.86467104114331       -0.0000000000000000        0.0000000000000000     
   872.96632136548658       -0.0000000000000000        0.0000000000000000     
   873.07164527067266       -0.0000000000000000        0.0000000000000000     
   873.18023083321475       -0.0000000000000000        0.0000000000000000     
   873.29165290372987       -0.0000000000000000        0.0000000000000000     
   873.40547473117374       -0.0000000000000000       -0.0000000000000000     
   873.52124963917674       -0.0000000000000000       -0.0000000000000000     
   873.63852274861699       -0.0000000000000000       -0.0000000000000000     
   873.75683274028518       -0.0000000000000000       -0.0000000000000000     
   873.87571365121278       -0.0000000000000000       -0.0000000000000000     
   873.99469669797634       -0.0000000000000000       -0.0000000000000000     
   874.11331212005678       -0.0000000000000000       -0.0000000000000000     
   874.23109103609772       -0.0000000000000000       -0.0000000000000000     
   874.34756730573270       -0.0000000000000000       -0.0000000000000000     
   874.46227938946890       -0.0000000000000000       -0.0000000000000000     
   874.57477219899579       -0.0000000000000000       -0.0000000000000000     
   874.68459893017314       -0.0000000000000000       -0.0000000000000000     
   874.79132287090590       -0.0000000000000000       -0.0000000000000000     
   874.89451917607244       -0.0000000000000000       -0.0000000000000000     
   874.99377660170660       -0.0000000000000000       -0.0000000000000000     
   875.08869919068275       -0.0000000000000000       -0.0000000000000000     
   875.17890790226318       -0.0000000000000000       -0.0000000000000000     
   875.26404217801849       -0.0000000000000000       -0.0000000000000000     
   875.34376143682880       -0.0000000000000000       -0.0000000000000000     
   875.41774649191552       -0.0000000000000000       -0.0000000000000000     
   875.48570088314727       -0.0000000000000000       -0.0000000000000000     
   875.54735211819741       -0.0000000000000000       -0.0000000000000000     
   875.60245281651044       -0.0000000000000000       -0.0000000000000000     
   875.65078175045835       -0.0000000000000000       -0.0000000000000000     
   875.69214477853654       -0.0000000000000000       -0.0000000000000000     
   875.72637566593937       -0.0000000000000000       -0.0000000000000000     
   875.75333678839684       -0.0000000000000000       -0.0000000000000000     
   875.77291971572811       -0.0000000000000000       -0.0000000000000000     
   875.78504567214463       -0.0000000000000000       -0.0000000000000000     
   875.78966587096659       -0.0000000000000000       -0.0000000000000000     
   875.78676172204109       -0.0000000000000000       -0.0000000000000000     
   875.77634491080562       -0.0000000000000000       -0.0000000000000000     
   875.75845734858842       -0.0000000000000000       -0.0000000000000000     
   875.73317099440283       -0.0000000000000000       -0.0000000000000000     
   875.70058754914623       -0.0000000000000000       -0.0000000000000000     
   875.66083802376284       -0.0000000000000000       -0.0000000000000000     
   875.61408218357178       -0.0000000000000000       -0.0000000000000000     
   875.56050787157972       -0.0000000000000000       -0.0000000000000000     
   875.50033021419267       -0.0000000000000000       -0.0000000000000000     
   875.43379071332504       -0.0000000000000000       -0.0000000000000000     
   875.36115622943692       -0.0000000000000000       -0.0000000000000000     
   875.28271786054188       -0.0000000000000000       -0.0000000000000000     
   875.19878972270635       -0.0000000000000000       -0.0000000000000000     
   875.10970763798662       -0.0000000000000000       -0.0000000000000000     
   875.01582773614018       -0.0000000000000000       -0.0000000000000000     
   874.91752497680488       -0.0000000000000000       -0.0000000000000000     
   874.81519159912148       -0.0000000000000000       -0.0000000000000000     
   874.70923550604903       -0.0000000000000000       -0.0000000000000000     
   874.60007859081998       -0.0000000000000000       -0.0000000000000000     
   874.48815501314334       -0.0000000000000000       -0.0000000000000000     
   874.37390943288460        0.0000000000000000       -0.0000000000000000     
   874.25779520902063        0.0000000000000000       -0.0000000000000000     
   874.14027257169028        0.0000000000000000       -0.0000000000000000     
   874.02180677515491        0.0000000000000000       -0.0000000000000000     
   873.90286623942131        0.0000000000000000       -0.0000000000000000     
   873.78392068819267        0.0000000000000000       -0.0000000000000000     
   873.66543929068575        0.0000000000000000       -0.0000000000000000     
   873.54788881469392        0.0000000000000000       -0.0000000000000000     
   873.43173179808821        0.0000000000000000       -0.0000000000000000     
   873.31742474573741        0.0000000000000000       -0.0000000000000000     
   873.20541635858763        0.0000000000000000       -0.0000000000000000     
   873.09614580139134        0.0000000000000000       -0.0000000000000000     
   872.99004101529772        0.0000000000000000       -0.0000000000000000     
   872.88751708122743        0.0000000000000000       -0.0000000000000000     
   872.78897463966712        0.0000000000000000       -0.0000000000000000     
   872.69479837219194        0.0000000000000000       -0.0000000000000000     
   872.60535554973001        0.0000000000000000       -0.0000000000000000     
   872.52099465225069        0.0000000000000000       -0.0000000000000000     
   872.44204406424342        0.0000000000000000       -0.0000000000000000     
   872.36881085003381        0.0000000000000000       -0.0000000000000000     
   872.30157961266013        0.0000000000000000       -0.0000000000000000     
   872.24061143971562        0.0000000000000000       -0.0000000000000000     
   872.18614293925236        0.0000000000000000       -0.0000000000000000     
   872.13838536852552        0.0000000000000000       -0.0000000000000000     
   872.09752385805268        0.0000000000000000       -0.0000000000000000     
   872.06371673316175        0.0000000000000000       -0.0000000000000000     
   872.03709493490646        0.0000000000000000       -0.0000000000000000     
   872.01776154192589        0.0000000000000000       -0.0000000000000000     
   872.00579139455067        0.0000000000000000       -0.0000000000000000     
   872.00123082216112        0.0000000000000000       -0.0000000000000000     
   872.00409747452727        0.0000000000000000       -0.0000000000000000     
   872.01438025757864        0.0000000000000000       -0.0000000000000000     
   872.03203937377691        0.0000000000000000       -0.0000000000000000     
   872.05700646697881        0.0000000000000000       -0.0000000000000000     
   872.08918487141125        0.0000000000000000       -0.0000000000000000     
   872.12844996408751        0.0000000000000000       -0.0000000000000000     
   872.17464961972439        0.0000000000000000       -0.0000000000000000     
   872.22760476692758        0.0000000000000000       -0.0000000000000000     
   872.28711004412810        0.0000000000000000       -0.0000000000000000     
   872.35293455346186        0.0000000000000000       -0.0000000000000000     
   872.42482271048925        0.0000000000000000       -0.0000000000000000     
   872.50249518734211        0.0000000000000000       -0.0000000000000000     
   872.58564994659866        0.0000000000000000       -0.0000000000000000     
   872.67396336285174        0.0000000000000000       -0.0000000000000000     
   872.76709142864911        0.0000000000000000       -0.0000000000000000     
   872.86467104114388        0.0000000000000000       -0.0000000000000000     
   872.96632136548726        0.0000000000000000       -0.0000000000000000     
   873.07164527067357        0.0000000000000000       -0.0000000000000000     
   873.18023083321555        0.0000000000000000       -0.0000000000000000     
   873.29165290373055        0.0000000000000000       -0.0000000000000000     
   873.40547473117454        0.0000000000000000        0.0000000000000000     
   900.22810436967120        28.290807907624835        0.0000000000000000     
   900.13535850665949        28.273934883759178       0.88854419974946119     
   900.01348831418568        28.228251188273077        1.7759710306627612     
   899.86197520802057        28.153797292639823        2.6613173975345612     
   899.68035105293336        28.050648332041938        3.5436209687974549     
   899.46820290669837        27.918914263918460        4.4219216101597345     
   899.22517758420338        27.758739951245186        5.2952628464324967     
   898.95098599892196        27.570305166397464        6.1626933462463445     
   898.64540724011272        27.353824511923914        7.0232684238195766     
   898.30829234570035        27.109547255111533        7.8760515514534539     
   897.93956773288676        26.837757073840955        8.7201158760055488     
   897.53923825111190        26.538771711908346        9.5545457322386866     
   897.10738982501164        26.212942542718299        10.378438145668287     
   896.64419165849620        25.860654041019931        11.190904317342197     
   896.14989797489898        25.482323163154906        11.991071082889198     
   895.62484927236767        25.078398637099983        12.778082338169821     
   895.06947307813857        24.649360164404424        13.551100423957541     
   894.48428419006098        24.195717536932197        14.309307462270121     
   893.86988439863262        23.718009672107303        15.051906637259284     
   893.22696168779078        23.216803571114621        15.778123413947510     
   892.55628891773324        22.692693205217068        16.487206688569920     
   891.85872199803202        22.146298336000612        17.178429864829354     
   891.13519756417736        21.578263275941691        17.851091850996344     
   890.38673017539975        20.989255596197832        18.504517973472897     
   889.61440905607037        20.379964788943440        19.138060803179389     
   888.81939440716667        19.751100891904208        19.751100891906255     
   888.00291331806181        19.103393082978382        20.343047416582937     
   887.16625531234740        18.437588252971945        20.913338730245979     
   886.31076756431594        17.754449564513202        21.461442819319306     
   885.43784982525915        17.054755005154341        21.986857667645189     
   884.54894910069936        16.339295942513544        22.489111528506584     
   883.64555412116658        15.608875689066931        22.967763106653791     
   882.72918965009058        14.864308083870007        23.422401653076310     
   881.80141067282398        14.106416098080574        23.852646975937080     
   880.86379651075663        13.336030470677731        24.258149371701371     
   879.91794490394864        12.553988380233351        24.638589481039968     
   878.96546610469989        11.761132158003315        24.993678074559682     
   878.00797702306443        10.958308046976402        25.323155773810239     
   877.04709546349534        10.146365010858991        25.626792713331575     
   876.08443448965397        9.3261535962949758        25.904388149739273     
   875.12159695194873        8.4985248509325686        26.155770023997306     
   874.16017020965216        7.6643292992630361        26.380794483099095     
   873.20172107651558        6.8244159774807631        26.579345367371957     
   872.24779101570698        5.9796315279579977        26.751333669540593     
   871.29989160669368        5.1308193532993576        26.896696971536940     
   870.35950030341246        4.2788188293479807        27.015398864832203     
   869.42805649977549        3.4244645759631904        27.107428359799005     
   868.50695791525652        2.5685857838840671        27.172799289292264     
   867.59755731008443        1.7120055955384335        27.211549711277090     
   866.70115953640425       0.85554053725573354        27.223741314934308     
   865.81901892873861       -2.8137724094434895E-012   27.209458834249617     
   864.95233703418410      -0.85381423457137484        27.168809472646483     
   864.10226068005284       -1.7051084260692502        27.101922341763792     
   863.26988037411536       -2.5530972690324343        27.008947917013177     
   862.45622903025446       -3.3970042518848786        26.890057512085189     
   861.66228101020147       -4.2360619850130057        26.745442774113524     
   860.88895147009066       -5.0695125017219640        26.575315200758133     
   860.13709599887636       -5.8966075358203538        26.379905680036511     
   859.40751053416182       -6.7166087795045692        26.159464053321557     
   858.70093153973369       -7.5287881250992035        25.914258701538774     
   858.01803642805567       -8.3324278940601069        25.644576154237811     
   857.35944421013164       -9.1268210564661096        25.350720720885732     
   856.72571635454256       -9.9112714440192651        25.033014143435338     
   856.11735783701647       -10.685093959345199        24.691795268960487     
   855.53481836166043       -11.447614784140690        24.327419740924245     
   854.97849373492022       -12.198171588458296        23.940259707454743     
   854.44872737342962       -12.936113743152349        23.530703544846315     
   853.94581192717408       -13.660802537241205        23.099155594381156     
   853.46999099978177       -14.371611401670556        22.646035910476403     
   853.02146094828709       -15.067926140695999        22.171780018102996     
   852.60037274533545       -15.749145171842187        21.676838677392865     
   852.20683388755060       -16.414679775144723        21.161677653349614     
   851.84091033460413       -17.063954352140978        20.626777488600528     
   851.50262846442297       -17.696406694849593        20.072633277173487     
   851.19197703094721       -18.311488264767764        19.499754437348383     
   850.90890911184238       -18.908664481721075        18.908664481715199     
   850.65334403463748       -19.487415022224088        18.299900782669425     
   850.42516927081738       -20.047234126851791        17.674014331684681     
   850.22424228849684       -20.587630915982423        17.031569490822282     
   850.05039235538266       -21.108129713151179        16.373143735063387     
   849.90342228482223       -21.608270375151722        15.699327384180616     
   849.78311011879327       -22.087608627937517        15.010723322998926     
   849.68921074273169       -22.545716407307125        14.307946709029459     
   849.62145742810924       -22.982182203305982        13.591624666592097     
   849.57956329961587       -23.396611407239742        12.862395966671189     
   849.56322272474881       -23.788626660171641        12.120910691873842     
   849.57211262444480       -24.157868201764643        11.367829885978439     
   849.60589370422963       -24.503994218329588        10.603825187673490     
   849.66421160607706       -24.826681188949234        9.8295784481912793     
   849.74669798188700       -25.125624228566114        9.0457813326380485     
   849.85297149007533       -25.400537426945057        8.2531349049103220     
   849.98263871735981       -25.651154182451243        7.4523491961680710     
   850.13529502828078       -25.877227529616739        6.6441427569066818     
   850.31052534545086       -26.078530459504968        5.8292421927340481     
   850.50790486386131       -26.254856231919167        5.0083816840150037     
   850.72699970289966       -26.406018678539482        4.1823024895944050     
   850.96736749995728       -26.531852496110588        3.3517524348521195     
   851.22855794971019       -26.632213528838879        2.5174853843792802     
   851.51011329329197       -26.706979039193325        1.6802606995956106     
   851.81156876167188       -26.756047966337324       0.84084268165329656     
   852.13245297761227       -26.779341171449619       -5.5385865474437003E-012
   852.47228832059523       -26.776801669220525      -0.84149489305257164     
   852.83059125909733       -26.748394844834781       -1.6828663612376844     
   853.20687265454944       -26.694108655774631       -2.5233361965002112     
   853.60063804126605       -26.613953817796322       -3.3621242438014498     
   854.01138788653248       -26.507963974449204       -4.1984490382420177     
   854.43861783496368       -26.376195849520933       -5.0315284540171348     
   854.88181894111744       -26.218729381802721       -5.8605803647526065     
   855.34047789424960       -26.035667841578032       -6.6848233147528493     
   855.81407723895256       -25.827137928243918       -7.5034772006806847     
   856.30209559530545       -25.593289848479536       -8.3157639631751366     
   856.80400788201064       -25.334297374378814       -9.1209082878986099     
   857.31928554585318       -25.050357880966100       -9.9181383154879299     
   857.84739680066912       -24.741692362514122       -10.706686359864737     
   858.38780687884446       -24.408545427083300       -11.485789634339072     
   858.93997829819716       -24.051185268700781       -12.254690984915756     
   859.50337114691149       -23.669903616596756       -13.012639630185937     
   860.07744338899329       -23.265015660915239       -13.758891907155750     
   860.66165119249899       -22.836859954316722       -14.492712022330380     
   861.25544928255420       -22.385798288891522       -15.213372807334535     
   861.85829132090532       -21.912215547805751       -15.920156478309483     
   862.46963031346763       -21.416519531107177       -16.612355398282297     
   863.08891904700363       -20.899140755126243       -17.289272841654853     
   863.71561055571362       -20.360532224919165       -17.950223759907797     
   864.34915861813363       -19.801169179215449       -18.594535547559722     
   864.98901828430405       -19.221548807352594       -19.221548807362542     
   865.63464643272403       -18.622189937706526       -19.830618113652488     
   866.28550235609976       -18.003632697158423       -20.421112772711624     
   866.94104837437510       -17.366438141177444       -20.992417578928290     
   867.60075047296732       -16.711187854145464       -21.543933565477190     
   868.26407896355227       -16.038483519604888       -22.075078748171528     
   868.93050916412619       -15.348946460173742       -22.585288861071934     
   869.59952209446305       -14.643217146946061       -23.074018082370436     
   870.27060518244036       -13.921954678276792       -23.540739749004985     
   870.94325297609464       -13.185836227944209       -23.984947058400309     
   871.61696785562924       -12.435556462783353       -24.406153755677945     
   872.29126073901807       -11.671826929997239       -24.803894804631582     
   872.96565177427158       -10.895375414472035       -25.177727040727028     
   873.63967101090543       -10.106945266552946       -25.527229804358157     
   874.31285904269873       -9.3072947008735039       -25.852005552576109     
   874.98476761340862       -8.4971960669753486       -26.151680447506088     
   875.65496017680425       -7.6774350926028960       -26.425904919680491     
   876.32301240214031       -6.8488101007102644       -26.674354204545249     
   876.98851261606899       -6.0121312013695274       -26.896728850443363     
   877.65106217196205       -5.1682194599232911       -27.092755196443282     
   878.31027573773304       -4.3179060428724156       -27.262185818463177     
   878.96578149346033       -3.4620313431350551       -27.404799942242835     
   879.61722123049242       -2.6014440864476778       -27.520403821835362     
   880.26425034421129       -1.7370004208047267       -27.608831082428704     
   880.90653771326765      -0.86956299094541745       -27.669943026461677     
   881.54376545889272        8.6069287943320172E-012  -27.703628902170532     
   882.17562857880250       0.87081573958186897       -27.709806133886705     
   882.80183445126067        1.7420077634012174       -27.688420513603077     
   883.42210220605307        2.6126969188044020       -27.639446353532893     
   884.03616196041344        3.4820023323167275       -27.562886599598148     
   884.64375391934686        4.3490423787245547       -27.458772906001165     
   885.24462734128952        5.2129356495169921       -27.327165671249588     
   885.83853937162417        6.0728019185333055       -27.168154036219132     
   886.42525374819763        6.9277631027496653       -26.981855845044343     
   887.00453938467604        7.7769442162578821       -26.768417569823900     
   887.57616883927381        8.6194743156360190       -26.528014200308021     
   888.13991667810478        9.4544874350783523       -26.260849099899158     
   888.69555774410344        10.281123509843857       -25.967153829438704     
   889.24286534411442        11.098529286790420       -25.647187940369697     
   889.78160936836298        11.905859220986569       -25.301238738955320     
   890.31155435803123        12.702276357629428       -24.929621023292153     
   890.83245753809945        13.486953198740851       -24.532676794885429     
   891.34406683391342        14.259072554362868       -24.110774946547078     
   891.84611889111261        15.017828378219571       -23.664310928337791     
   892.33833711957300        15.762426588055602       -23.193706393198976     
   892.82042978285756        16.492085871091575       -22.699408823811755     
   893.29208815533696        17.206038475254626       -22.181891142077024     
   893.75298476960108        17.903530987037758       -21.641651302436973     
   894.20277177703394        18.583825097015584       -21.079211870053697     
   894.64107944446209        19.246198354186809       -20.495119584631201     
   895.06751480958746        19.889944910426788       -19.889944910412382     
   895.48166051748797        20.514376256407800       -19.264281572611097     