 VARIABLES = "x_1", "x_2", "x_3"
 ZONE F = POINT , I =         201  , J =         101
   145.95870783906628        0.0000000000000000        0.0000000000000000     
   145.95870783906628        0.0000000000000000        0.0000000000000000     
   145.95870783906628        0.0000000000000000        0.0000000000000000     
   145.95870783906628        0.0000000000000000        0.0000000000000000     
   145.95870783906628        0.0000000000000000        0.0000000000000000     
   145.95870783906628        0.0000000000000000        0.0000000000000000     
   145.95870783906628        0.0000000000000000        0.0000000000000000     
   145.95870783906628        0.0000000000000000        0.0000000000000000     
   145.95870783906628        0.0000000000000000        0.0000000000000000     
   145.95870783906628        0.0000000000000000        0.0000000000000000     
   145.95870783906628        0.0000000000000000        0.0000000000000000     
   145.95870783906628        0.0000000000000000        0.0000000000000000     
   145.95870783906628        0.0000000000000000        0.0000000000000000     
   145.95870783906628        0.0000000000000000        0.0000000000000000     
   145.95870783906628        0.0000000000000000        0.0000000000000000     
   145.95870783906628        0.0000000000000000        0.0000000000000000     
   145.95870783906628        0.0000000000000000        0.0000000000000000     
   145.95870783906628        0.0000000000000000        0.0000000000000000     
   145.95870783906628        0.0000000000000000        0.0000000000000000     
   145.95870783906628        0.0000000000000000        0.0000000000000000     
   145.95870783906628        0.0000000000000000        0.0000000000000000     
   145.95870783906628        0.0000000000000000        0.0000000000000000     
   145.95870783906628        0.0000000000000000        0.0000000000000000     
   145.95870783906628        0.0000000000000000        0.0000000000000000     
   145.95870783906628        0.0000000000000000        0.0000000000000000     
   145.95870783906628        0.0000000000000000        0.0000000000000000     
   145.95870783906628        0.0000000000000000        0.0000000000000000     
   145.95870783906628        0.0000000000000000        0.0000000000000000     
   145.95870783906628        0.0000000000000000        0.0000000000000000     
   145.95870783906628        0.0000000000000000        0.0000000000000000     
   145.95870783906628        0.0000000000000000        0.0000000000000000     
   145.95870783906628        0.0000000000000000        0.0000000000000000     
   145.95870783906628        0.0000000000000000        0.0000000000000000     
   145.95870783906628        0.0000000000000000        0.0000000000000000     
   145.95870783906628        0.0000000000000000        0.0000000000000000     
   145.95870783906628        0.0000000000000000        0.0000000000000000     
   145.95870783906628        0.0000000000000000        0.0000000000000000     
   145.95870783906628        0.0000000000000000        0.0000000000000000     
   145.95870783906628        0.0000000000000000        0.0000000000000000     
   145.95870783906628        0.0000000000000000        0.0000000000000000     
   145.95870783906628        0.0000000000000000        0.0000000000000000     
   145.95870783906628        0.0000000000000000        0.0000000000000000     
   145.95870783906628        0.0000000000000000        0.0000000000000000     
   145.95870783906628        0.0000000000000000        0.0000000000000000     
   145.95870783906628        0.0000000000000000        0.0000000000000000     
   145.95870783906628        0.0000000000000000        0.0000000000000000     
   145.95870783906628        0.0000000000000000        0.0000000000000000     
   145.95870783906628        0.0000000000000000        0.0000000000000000     
   145.95870783906628        0.0000000000000000        0.0000000000000000     
   145.95870783906628        0.0000000000000000        0.0000000000000000     
   145.95870783906628       -0.0000000000000000        0.0000000000000000     
   145.95870783906628       -0.0000000000000000        0.0000000000000000     
   145.95870783906628       -0.0000000000000000        0.0000000000000000     
   145.95870783906628       -0.0000000000000000        0.0000000000000000     
   145.95870783906628       -0.0000000000000000        0.0000000000000000     
   145.95870783906628       -0.0000000000000000        0.0000000000000000     
   145.95870783906628       -0.0000000000000000        0.0000000000000000     
   145.95870783906628       -0.0000000000000000        0.0000000000000000     
   145.95870783906628       -0.0000000000000000        0.0000000000000000     
   145.95870783906628       -0.0000000000000000        0.0000000000000000     
   145.95870783906628       -0.0000000000000000        0.0000000000000000     
   145.95870783906628       -0.0000000000000000        0.0000000000000000     
   145.95870783906628       -0.0000000000000000        0.0000000000000000     
   145.95870783906628       -0.0000000000000000        0.0000000000000000     
   145.95870783906628       -0.0000000000000000        0.0000000000000000     
   145.95870783906628       -0.0000000000000000        0.0000000000000000     
   145.95870783906628       -0.0000000000000000        0.0000000000000000     
   145.95870783906628       -0.0000000000000000        0.0000000000000000     
   145.95870783906628       -0.0000000000000000        0.0000000000000000     
   145.95870783906628       -0.0000000000000000        0.0000000000000000     
   145.95870783906628       -0.0000000000000000        0.0000000000000000     
   145.95870783906628       -0.0000000000000000        0.0000000000000000     
   145.95870783906628       -0.0000000000000000        0.0000000000000000     
   145.95870783906628       -0.0000000000000000        0.0000000000000000     
   145.95870783906628       -0.0000000000000000        0.0000000000000000     
   145.95870783906628       -0.0000000000000000        0.0000000000000000     
   145.95870783906628       -0.0000000000000000        0.0000000000000000     
   145.95870783906628       -0.0000000000000000        0.0000000000000000     
   145.95870783906628       -0.0000000000000000        0.0000000000000000     
   145.95870783906628       -0.0000000000000000        0.0000000000000000     
   145.95870783906628       -0.0000000000000000        0.0000000000000000     
   145.95870783906628       -0.0000000000000000        0.0000000000000000     
   145.95870783906628       -0.0000000000000000        0.0000000000000000     
   145.95870783906628       -0.0000000000000000        0.0000000000000000     
   145.95870783906628       -0.0000000000000000        0.0000000000000000     
   145.95870783906628       -0.0000000000000000        0.0000000000000000     
   145.95870783906628       -0.0000000000000000        0.0000000000000000     
   145.95870783906628       -0.0000000000000000        0.0000000000000000     
   145.95870783906628       -0.0000000000000000        0.0000000000000000     
   145.95870783906628       -0.0000000000000000        0.0000000000000000     
   145.95870783906628       -0.0000000000000000        0.0000000000000000     
   145.95870783906628       -0.0000000000000000        0.0000000000000000     
   145.95870783906628       -0.0000000000000000        0.0000000000000000     
   145.95870783906628       -0.0000000000000000        0.0000000000000000     
   145.95870783906628       -0.0000000000000000        0.0000000000000000     
   145.95870783906628       -0.0000000000000000        0.0000000000000000     
   145.95870783906628       -0.0000000000000000        0.0000000000000000     
   145.95870783906628       -0.0000000000000000        0.0000000000000000     
   145.95870783906628       -0.0000000000000000        0.0000000000000000     
   145.95870783906628       -0.0000000000000000        0.0000000000000000     
   145.95870783906628       -0.0000000000000000       -0.0000000000000000     
   145.95870783906628       -0.0000000000000000       -0.0000000000000000     
   145.95870783906628       -0.0000000000000000       -0.0000000000000000     
   145.95870783906628       -0.0000000000000000       -0.0000000000000000     
   145.95870783906628       -0.0000000000000000       -0.0000000000000000     
   145.95870783906628       -0.0000000000000000       -0.0000000000000000     
   145.95870783906628       -0.0000000000000000       -0.0000000000000000     
   145.95870783906628       -0.0000000000000000       -0.0000000000000000     
   145.95870783906628       -0.0000000000000000       -0.0000000000000000     
   145.95870783906628       -0.0000000000000000       -0.0000000000000000     
   145.95870783906628       -0.0000000000000000       -0.0000000000000000     
   145.95870783906628       -0.0000000000000000       -0.0000000000000000     
   145.95870783906628       -0.0000000000000000       -0.0000000000000000     
   145.95870783906628       -0.0000000000000000       -0.0000000000000000     
   145.95870783906628       -0.0000000000000000       -0.0000000000000000     
   145.95870783906628       -0.0000000000000000       -0.0000000000000000     
   145.95870783906628       -0.0000000000000000       -0.0000000000000000     
   145.95870783906628       -0.0000000000000000       -0.0000000000000000     
   145.95870783906628       -0.0000000000000000       -0.0000000000000000     
   145.95870783906628       -0.0000000000000000       -0.0000000000000000     
   145.95870783906628       -0.0000000000000000       -0.0000000000000000     
   145.95870783906628       -0.0000000000000000       -0.0000000000000000     
   145.95870783906628       -0.0000000000000000       -0.0000000000000000     
   145.95870783906628       -0.0000000000000000       -0.0000000000000000     
   145.95870783906628       -0.0000000000000000       -0.0000000000000000     
   145.95870783906628       -0.0000000000000000       -0.0000000000000000     
   145.95870783906628       -0.0000000000000000       -0.0000000000000000     
   145.95870783906628       -0.0000000000000000       -0.0000000000000000     
   145.95870783906628       -0.0000000000000000       -0.0000000000000000     
   145.95870783906628       -0.0000000000000000       -0.0000000000000000     
   145.95870783906628       -0.0000000000000000       -0.0000000000000000     
   145.95870783906628       -0.0000000000000000       -0.0000000000000000     
   145.95870783906628       -0.0000000000000000       -0.0000000000000000     
   145.95870783906628       -0.0000000000000000       -0.0000000000000000     
   145.95870783906628       -0.0000000000000000       -0.0000000000000000     
   145.95870783906628       -0.0000000000000000       -0.0000000000000000     
   145.95870783906628       -0.0000000000000000       -0.0000000000000000     
   145.95870783906628       -0.0000000000000000       -0.0000000000000000     
   145.95870783906628       -0.0000000000000000       -0.0000000000000000     
   145.95870783906628       -0.0000000000000000       -0.0000000000000000     
   145.95870783906628       -0.0000000000000000       -0.0000000000000000     
   145.95870783906628       -0.0000000000000000       -0.0000000000000000     
   145.95870783906628       -0.0000000000000000       -0.0000000000000000     
   145.95870783906628       -0.0000000000000000       -0.0000000000000000     
   145.95870783906628       -0.0000000000000000       -0.0000000000000000     
   145.95870783906628       -0.0000000000000000       -0.0000000000000000     
   145.95870783906628       -0.0000000000000000       -0.0000000000000000     
   145.95870783906628       -0.0000000000000000       -0.0000000000000000     
   145.95870783906628       -0.0000000000000000       -0.0000000000000000     
   145.95870783906628       -0.0000000000000000       -0.0000000000000000     
   145.95870783906628        0.0000000000000000       -0.0000000000000000     
   145.95870783906628        0.0000000000000000       -0.0000000000000000     
   145.95870783906628        0.0000000000000000       -0.0000000000000000     
   145.95870783906628        0.0000000000000000       -0.0000000000000000     
   145.95870783906628        0.0000000000000000       -0.0000000000000000     
   145.95870783906628        0.0000000000000000       -0.0000000000000000     
   145.95870783906628        0.0000000000000000       -0.0000000000000000     
   145.95870783906628        0.0000000000000000       -0.0000000000000000     
   145.95870783906628        0.0000000000000000       -0.0000000000000000     
   145.95870783906628        0.0000000000000000       -0.0000000000000000     
   145.95870783906628        0.0000000000000000       -0.0000000000000000     
   145.95870783906628        0.0000000000000000       -0.0000000000000000     
   145.95870783906628        0.0000000000000000       -0.0000000000000000     
   145.95870783906628        0.0000000000000000       -0.0000000000000000     
   145.95870783906628        0.0000000000000000       -0.0000000000000000     
   145.95870783906628        0.0000000000000000       -0.0000000000000000     
   145.95870783906628        0.0000000000000000       -0.0000000000000000     
   145.95870783906628        0.0000000000000000       -0.0000000000000000     
   145.95870783906628        0.0000000000000000       -0.0000000000000000     
   145.95870783906628        0.0000000000000000       -0.0000000000000000     
   145.95870783906628        0.0000000000000000       -0.0000000000000000     
   145.95870783906628        0.0000000000000000       -0.0000000000000000     
   145.95870783906628        0.0000000000000000       -0.0000000000000000     
   145.95870783906628        0.0000000000000000       -0.0000000000000000     
   145.95870783906628        0.0000000000000000       -0.0000000000000000     
   145.95870783906628        0.0000000000000000       -0.0000000000000000     
   145.95870783906628        0.0000000000000000       -0.0000000000000000     
   145.95870783906628        0.0000000000000000       -0.0000000000000000     
   145.95870783906628        0.0000000000000000       -0.0000000000000000     
   145.95870783906628        0.0000000000000000       -0.0000000000000000     
   145.95870783906628        0.0000000000000000       -0.0000000000000000     
   145.95870783906628        0.0000000000000000       -0.0000000000000000     
   145.95870783906628        0.0000000000000000       -0.0000000000000000     
   145.95870783906628        0.0000000000000000       -0.0000000000000000     
   145.95870783906628        0.0000000000000000       -0.0000000000000000     
   145.95870783906628        0.0000000000000000       -0.0000000000000000     
   145.95870783906628        0.0000000000000000       -0.0000000000000000     
   145.95870783906628        0.0000000000000000       -0.0000000000000000     
   145.95870783906628        0.0000000000000000       -0.0000000000000000     
   145.95870783906628        0.0000000000000000       -0.0000000000000000     
   145.95870783906628        0.0000000000000000       -0.0000000000000000     
   145.95870783906628        0.0000000000000000       -0.0000000000000000     
   145.95870783906628        0.0000000000000000       -0.0000000000000000     
   145.95870783906628        0.0000000000000000       -0.0000000000000000     
   145.95870783906628        0.0000000000000000       -0.0000000000000000     
   145.95870783906628        0.0000000000000000       -0.0000000000000000     
   145.95870783906628        0.0000000000000000       -0.0000000000000000     
   145.95870783906628        0.0000000000000000       -0.0000000000000000     
   145.95870783906628        0.0000000000000000       -0.0000000000000000     
   145.95870783906628        0.0000000000000000       -0.0000000000000000     
   145.95870783906628        0.0000000000000000        0.0000000000000000     
   140.95034612145372        4.4295430761155243        0.0000000000000000     
   140.39604955695989        4.4099464881549180       0.13858815157370769     
   139.85216529794272        4.3863587629656537       0.27596630202713313     
   139.31894213046152        4.3588432046584726       0.41203199458694417     
   138.79661335561374        4.3274647338470649       0.54668593007438915     
   138.28539759644292        4.2922897629627972       0.67983191181764480     
   137.78549959438928        4.2533860790779530       0.81137678855860185     
   137.29711099290205        4.2108227339366788       0.94123039582028778     
   136.82041110609708        4.1646699408830061        1.0693054961540700     
   136.35556767059305        4.1149989783696048        1.1955177186408517     
   135.90273757889102        4.0618820997285816        1.3197854979777832     
   135.46206759287580        4.0053924488865942        1.4420300134417401     
   135.03369503621582        3.9456039817102666        1.5621751279830201     
   134.61774846461608        3.8825913926740725        1.6801473276674446     
   134.21434831304691        3.8164300465513104        1.7958756616523919     
   133.82360751921752        3.7471959148390410        1.9092916828521962     
   133.44563212270097        3.6749655166397521        2.0203293894208691     
   133.08052183923590        3.5998158637357389        2.1289251671551499     
   132.72837060984011        3.5218244096064839        2.2350177328984846     
   132.38926712446579        3.4410690021545474        2.3385480790065998     
   132.06329532001050        3.3576278399212520        2.4394594189177781     
   131.75053485257229        3.2715794315897835        2.5376971338557617     
   131.45106154389836        3.1830025585898554        2.6332087206802433     
   131.16494780203323        3.0919762406347751        2.7259437408891172     
   130.89226301621486        2.9985797040383271        2.8158537707679856     
   130.63307392610670        2.9028923526753663        2.9028923526756669     
   130.38744496548094        2.8049937414660615        2.9870149474496390     
   130.15543858049236        2.7049635522793967        3.0681788879123051     
   129.93711552269909        2.6028815721667056        3.1463433334576218     
   129.73253511699508        2.4988276738503785        3.2214692256978554     
   129.54175550462750        2.3928817984067043        3.2935192451519653     
   129.36483386147034        2.2851239400946572        3.3624577689602204     
   129.20182659172286        2.1756341332944840        3.4282508296140355     
   129.05278949719477        2.0644924415310153        3.4908660746956266     
   128.91777792232620        1.9517789485666668        3.5502727276286983     
   128.79684687507901        1.8375737515580930        3.6064415494490696     
   128.69005112381697        1.7219569562783321        3.6593448016126904     
   128.59744527027206        1.6050086744130017        3.7089562098677731     
   128.51908379867487        1.4868090229446576        3.7552509292279108     
   128.45502110109976        1.3674381256437174        3.7982055100935974     
   128.40531147905256        1.2469761166874549        3.8377978655807889     
   128.37000912130128        1.1255031464303484        3.8740072401267276     
   128.34916805792236        1.0030993893495730        3.9068141794551630     
   128.34284209050711       0.87984505418863412        3.9362005019952968     
   128.35108469844485       0.75582039632000186        3.9621492718611302     
   128.37394892117018       0.63110573234413303        3.9846447735102757     
   128.41148721623412       0.50578145693744059        4.0036724882137635     
   128.46375129303183       0.37992806195560319        4.0192190724806105     
   128.53079192199291       0.25362615779102804        4.0312723385931424     
   128.61265871901540       0.12695649697435646        4.0398212374208082     
   128.70939990490362       -4.1828482670262731E-013   4.0448558436918418     
   128.82106203954706      -0.12716221665936786        4.0463673439130847     
   128.94768973056318      -0.25444881038583089        4.0443480271388310     
   129.08932531611063      -0.38177818017115622        4.0387912787994278     
   129.24600852157144      -0.50906843235464161        4.0296915778094426     
   129.41777608979498      -0.63623734444564262        4.0170444971835426     
   129.60466138459640      -0.76320232713949543        4.0008467083955122     
   129.80669396720910      -0.88988038465901909        3.9810959897221010     
   130.02389914540313       -1.0161880735748081        3.9577912388184506     
   130.25629749500311       -1.1420414602803899        3.9309324897755946     
   130.50390435356573       -1.2673560773224870        3.9005209349127759     
   130.76672928601801       -1.3920468788121492        3.8665589515580421     
   131.04477552210290       -1.5160281951693355        3.8290501340694552     
   131.33803936553946       -1.6392136874815384        3.7879993313462927     
   131.64650957487592       -1.7615163017863260        3.7434126900744848     
   131.97016671609722       -1.8828482236180160        3.6952977039432011     
   132.30898248714811       -2.0031208331901178        3.6436632690596693     
   132.66291901464496       -2.1222446616175223        3.5885197457768050     
   133.03192812317928       -2.2401293486155978        3.5298790271328992     
   133.41595057776237       -2.3566836021471942        3.4677546140841780     
   133.81491530012403       -2.4718151605229282        3.4021616976892752     
   134.22873855976286       -2.5854307574947919        3.3331172483794567     
   134.65732314084755       -2.6974360909179000        3.2606401124193689     
   135.10055748629310       -2.8077357955897844        3.1847511156301267     
   135.55831482058096       -2.9162334209107721        3.1054731744093815     
   136.03045225315719       -3.0228314140422845        3.0228314140413453     
   136.51680986453502       -3.1274311092720786        2.9368532942436913     
   137.01720977753504       -3.2299327243259066        2.8475687418470912     
   137.53145521643435       -3.3302353643936131        2.7550102904473555     
   138.05932955714616       -3.4282370346634599        2.6592132268090301     
   138.60059537193263       -3.5238346621812475        2.5602157437331896     
   139.15499347254669       -3.6169241278696918        2.4580590990307147     
   139.72224195611406       -3.7074003095580008        2.3527877801657735     
   140.30203525850089       -3.7951571368810026        2.2444496740524822     
   140.89404322035463       -3.8800876589105791        2.1330962414009669     
   141.49791017146649       -3.9620841253789632        2.0187826949175802     
   142.11325403956658       -4.0410380823427277        1.9015681805680635     
   142.73966549013301       -4.1168404831171737        1.7815159610124840     
   143.37670710426306       -4.1893818152825588        1.6586936002173231     
   144.02391260211547       -4.2585522445251520        1.5331731481438253     
   144.68078611988165       -4.3242417760267875        1.4050313243033761     
   145.34680154867067       -4.3863404340554428        1.2743496988613419     
   146.02140194409537       -4.4447384603356284        1.1412148698613271     
   146.70399901571020       -4.4993265316903948        1.0057186350336726     
   147.39397270577484       -4.5499959973458051       0.86795815654643760     
   148.09067086708191       -4.5966391361732617       0.72803611695573556     
   148.79340904979162       -4.6391494340148309       0.58606086451677175     
   149.50147040734311       -4.6774218810912762       0.44214654592912889     
   150.21410573155788       -4.7113532893320835       0.29641322451175733     
   150.93053362699459       -4.7408426292912109       0.14898698173679414     
   151.64994083445961       -4.7657913861225021       -9.8567578231695160E-013
   152.37148271329843       -4.7861039338848910      -0.15040937553839673     
   153.09428389169170       -4.8016879272311357      -0.30209659819863083     
   153.81743909364107       -4.8124547093060226      -0.45491090632025455     
   154.54001415064582       -4.8183197344424258      -0.60869533720778102     
   155.26104720523904       -4.8192030039985330      -0.76328677059970607     
   155.97955011256127       -4.8150295134292911      -0.91851600367123398     
   156.69451004500175       -4.8057297084324144       -1.0742078594813576     
   157.40489130362886       -4.7912399477575649       -1.2301813306358318     
   158.10963733866495       -4.7715029700196920       -1.3862497597679924     
   158.80767297964172       -4.7464683616182484       -1.5422210582372964     
   159.49790687410672       -4.7160930226368034       -1.6978979642108007     
   160.17923413185275       -4.6803416273870386       -1.8530783410256915     
   160.85053916962309       -4.6391870760716145       -2.0075555164323240     
   161.51069874912329       -4.5926109338763732       -2.1611186629883856     
   162.15858519897230       -4.5406038536686761       -2.3135532195180284     
   162.79306980896783       -4.4831659783793301       -2.4646413531677891     
   163.41302638276051       -4.4203073190852287       -2.6141624611874641     
   164.01733493275472       -4.3520481047921296       -2.7618937111430117     
   164.60488549881538       -4.2784190999454346       -2.9076106178348664     
   165.17458207019820       -4.1994618857745420       -3.0510876547543906     
   165.72534658807223       -4.1152291017052551       -3.1920988974695224     
   166.25612300410117       -4.0257846432565154       -3.3304186958946387     
   166.76588136884283       -3.9312038130730866       -3.4658223719760750     
   167.25362192224395       -3.8315734220342308       -3.5980869389210195     
   167.71837915728264       -3.7269918377185425       -3.7269918377204712     
   168.15922582688924       -3.6175689778948694       -3.8523196863743570     
   168.57527686367413       -3.5034262471447990       -3.9738570369253208     
   168.96569318173781       -3.3846964151992385       -4.0913951351538724     
   169.32968532996051       -3.2615234360847603       -4.2047306775877340     
   169.66651696666327       -3.1340622077178222       -4.3136665603372215     
   169.97550812642774       -3.0024782721498169       -4.4180126141913831     
   170.25603825113720       -2.8669474572449638       -4.5175863203990438     
   170.50754895896344       -2.7276554611575277       -4.6122135016179593     
   170.72954652705107       -2.5847973815564620       -4.7017289826440720     
   170.92160406602088       -2.4385771921142347       -4.7859772157319567     
   171.08336336710113       -2.2892071693242331       -4.8648128655845433     
   171.21453640565514       -2.1369072732277017       -4.9381013494227091     
   171.31490648807548       -1.9819044861093555       -5.0057193279386256     
   171.38432903239868       -1.8244321136515553       -5.0675551433857198     
   171.42273197652150       -1.6647290534143762       -5.1235092015558132     
   171.43011581150316       -1.5030390358257886       -5.1734942949331346     
   171.40655324107169       -1.3396098431187522       -5.2174358648868262     
   171.35218847205874       -1.1746925118354625       -5.2552722013597153     
   171.26723614400007       -1.0085405246319499       -5.2869545791214243     
   171.15197990952376      -0.84140899715670048       -5.3124473302696424     
   171.00677068033698      -0.67355386574629728       -5.3317278532742289     
   170.83202455657661      -0.50523108157990315       -5.3447865594559003     
   170.62822045997473      -0.33669581676666216       -5.3516267583657484     
   170.39589749365871      -0.16820168760927448       -5.3522644840751630     
   170.13565205344224        1.6611148532585352E-012  -5.3467282648908494     
   169.84813471714239       0.16766097844778213       -5.3350588394699363     
   169.53404693976159       0.33453671526800188       -5.3173088227199470     
   169.19413758330748       0.50038707526084647       -5.2935423252239842     
   168.82919931057248       0.66497694444868549       -5.2638345302289116     
   168.44006487238454       0.82807681302173153       -5.2282712324723972     
   168.02760331766967       0.98946331486729988       -5.1869483433020767     
   167.59271615516349        1.1489197217827505       -5.1399713666574787     
   167.13633349479693        1.3062363909625601       -5.0874548505438906     
   166.65941019568481        1.4612111648328194       -5.0295218186295223     
   166.16292204630039        1.6136497227749160       -4.9663031865461758     
   165.64786200085925        1.7633658847272999       -4.8979371673732652     
   165.11523649419297        1.9101818670761093       -4.8245686706396835     
   164.56606185550663        2.0539284916368912       -4.7463486989928185     
   164.00136083941882        2.1944453488878390       -4.6634337464642490     
   163.42215929061490        2.3315809169372517       -4.5759852020125154     
   162.82948295633435        2.4651926379920099       -4.4841687617508166     
   162.22435445879458        2.5951469543395191       -4.3881538529763846     
   161.60779043755826        2.7213193060616336       -4.2881130728147010     
   160.98079886979622        2.8435940928666947       -4.1842216439798108     
   160.34437657441993        2.9618646025552131       -4.0766568898375208     
   159.69950690416121        3.0760329087280214       -3.9655977306444901     
   159.04715762789408        3.1860097404042058       -3.8512242025283201     
   158.38827900382398        3.2917143262426736       -3.7337170004738875     
   157.72380204263200        3.3930742160576526       -3.6132570462936298     
   157.05463695826484        3.4900250822883576       -3.4900250822858299     
   156.38167180279729        3.5825105040283640       -3.3642012910279040     