 VARIABLES = "x_1", "x_2", "x_3"
 ZONE F = POINT , I =         201  , J =         101
   82.409995183952958        0.0000000000000000        0.0000000000000000     
   83.105184251185918        0.0000000000000000        0.0000000000000000     
   83.895189660804263        0.0000000000000000        0.0000000000000000     
   84.784296804111406        0.0000000000000000        0.0000000000000000     
   85.777442376066389        0.0000000000000000        0.0000000000000000     
   86.880284569124314        0.0000000000000000        0.0000000000000000     
   88.099286373218789        0.0000000000000000        0.0000000000000000     
   89.441814374732218        0.0000000000000000        0.0000000000000000     
   90.916256019488628        0.0000000000000000        0.0000000000000000     
   92.532159025963395        0.0000000000000000        0.0000000000000000     
   94.300397550669686        0.0000000000000000        0.0000000000000000     
   96.233370879242230        0.0000000000000000        0.0000000000000000     
   98.345241926876724        0.0000000000000000        0.0000000000000000     
   100.65222479341412        0.0000000000000000        0.0000000000000000     
   103.17293318692387        0.0000000000000000        0.0000000000000000     
   105.92880492112940        0.0000000000000000        0.0000000000000000     
   108.94462220952984        0.0000000000000000        0.0000000000000000     
   112.24915355240481        0.0000000000000000        0.0000000000000000     
   115.87595125825958        0.0000000000000000        0.0000000000000000     
   119.86434995250107        0.0000000000000000        0.0000000000000000     
   124.26072711589401        0.0000000000000000        0.0000000000000000     
   129.12010871679141        0.0000000000000000        0.0000000000000000     
   134.50823430124925        0.0000000000000000        0.0000000000000000     
   140.50424099654984        0.0000000000000000        0.0000000000000000     
   147.20419178569409        0.0000000000000000        0.0000000000000000     
   154.72577122411133        0.0000000000000000        0.0000000000000000     
   163.21461936150368        0.0000000000000000        0.0000000000000000     
   172.85300128784283        0.0000000000000000        0.0000000000000000     
   183.87186436894893        0.0000000000000000        0.0000000000000000     
   196.56790119459700        0.0000000000000000        0.0000000000000000     
   211.32815809644421        0.0000000000000000        0.0000000000000000     
   228.66626179788261        0.0000000000000000        0.0000000000000000     
   249.27693505533821        0.0000000000000000        0.0000000000000000     
   274.11994522301563        0.0000000000000000        0.0000000000000000     
   304.55236830114598        0.0000000000000000        0.0000000000000000     
   342.54114446590398        0.0000000000000000        0.0000000000000000     
   391.00785482920060        0.0000000000000000        0.0000000000000000     
   454.37561583320252        0.0000000000000000        0.0000000000000000     
   539.32971363190404        0.0000000000000000        0.0000000000000000     
   655.24588709529860        0.0000000000000000        0.0000000000000000     
   810.65574785729655        0.0000000000000000        0.0000000000000000     
   990.73143934652364        0.0000000000000000        0.0000000000000000     
   1102.6912675124761        0.0000000000000000        0.0000000000000000     
   1035.1028425930658        0.0000000000000000        0.0000000000000000     
   860.31740837659356        0.0000000000000000        0.0000000000000000     
   694.36962760785480        0.0000000000000000        0.0000000000000000     
   568.02060756835681        0.0000000000000000        0.0000000000000000     
   475.49159703949391        0.0000000000000000        0.0000000000000000     
   406.90543959401754        0.0000000000000000        0.0000000000000000     
   354.81835101859946        0.0000000000000000        0.0000000000000000     
   314.25974328377509       -0.0000000000000000        0.0000000000000000     
   281.95545262589349       -0.0000000000000000        0.0000000000000000     
   255.71483982517768       -0.0000000000000000        0.0000000000000000     
   234.03698975785179       -0.0000000000000000        0.0000000000000000     
   215.86757536882536       -0.0000000000000000        0.0000000000000000     
   200.44819246797391       -0.0000000000000000        0.0000000000000000     
   187.22130554668954       -0.0000000000000000        0.0000000000000000     
   175.76891771823080       -0.0000000000000000        0.0000000000000000     
   165.77207308334980       -0.0000000000000000        0.0000000000000000     
   156.98351101157155       -0.0000000000000000        0.0000000000000000     
   149.20881025291649       -0.0000000000000000        0.0000000000000000     
   142.29313268300461       -0.0000000000000000        0.0000000000000000     
   136.11173622466430       -0.0000000000000000        0.0000000000000000     
   130.56307338245841       -0.0000000000000000        0.0000000000000000     
   125.56369491270164       -0.0000000000000000        0.0000000000000000     
   121.04443438082157       -0.0000000000000000        0.0000000000000000     
   116.94751535881714       -0.0000000000000000        0.0000000000000000     
   113.22433250453153       -0.0000000000000000        0.0000000000000000     
   109.83373120310192       -0.0000000000000000        0.0000000000000000     
   106.74066048918590       -0.0000000000000000        0.0000000000000000     
   103.91510856692238       -0.0000000000000000        0.0000000000000000     
   101.33125449770645       -0.0000000000000000        0.0000000000000000     
   98.966786846603156       -0.0000000000000000        0.0000000000000000     
   96.802352453461765       -0.0000000000000000        0.0000000000000000     
   94.821107488656111       -0.0000000000000000        0.0000000000000000     
   93.008349559310247       -0.0000000000000000        0.0000000000000000     
   91.351214532443876       -0.0000000000000000        0.0000000000000000     
   89.838425411270279       -0.0000000000000000        0.0000000000000000     
   88.460083373574975       -0.0000000000000000        0.0000000000000000     
   87.207493193797504       -0.0000000000000000        0.0000000000000000     
   86.073016893306445       -0.0000000000000000        0.0000000000000000     
   85.049950719706572       -0.0000000000000000        0.0000000000000000     
   84.132421536014192       -0.0000000000000000        0.0000000000000000     
   83.315299470685162       -0.0000000000000000        0.0000000000000000     
   82.594124289253884       -0.0000000000000000        0.0000000000000000     
   81.965043434843409       -0.0000000000000000        0.0000000000000000     
   81.424760076095808       -0.0000000000000000        0.0000000000000000     
   80.970489818543030       -0.0000000000000000        0.0000000000000000     
   80.599924995555753       -0.0000000000000000        0.0000000000000000     
   80.311205670559531       -0.0000000000000000        0.0000000000000000     
   80.102896663244323       -0.0000000000000000        0.0000000000000000     
   79.973970067019394       -0.0000000000000000        0.0000000000000000     
   79.923792859467568       -0.0000000000000000        0.0000000000000000     
   79.952119327403750       -0.0000000000000000        0.0000000000000000     
   80.059088137920810       -0.0000000000000000        0.0000000000000000     
   80.245223990551821       -0.0000000000000000        0.0000000000000000     
   80.511443887118176       -0.0000000000000000        0.0000000000000000     
   80.859068158573606       -0.0000000000000000        0.0000000000000000     
   81.289836495862943       -0.0000000000000000        0.0000000000000000     
   81.805929348433139       -0.0000000000000000        0.0000000000000000     
   82.409995183957264       -0.0000000000000000       -0.0000000000000000     
   83.105184251190806       -0.0000000000000000       -0.0000000000000000     
   83.895189660809805       -0.0000000000000000       -0.0000000000000000     
   84.784296804117588       -0.0000000000000000       -0.0000000000000000     
   85.777442376073267       -0.0000000000000000       -0.0000000000000000     
   86.880284569131987       -0.0000000000000000       -0.0000000000000000     
   88.099286373227216       -0.0000000000000000       -0.0000000000000000     
   89.441814374741497       -0.0000000000000000       -0.0000000000000000     
   90.916256019498775       -0.0000000000000000       -0.0000000000000000     
   92.532159025974536       -0.0000000000000000       -0.0000000000000000     
   94.300397550681879       -0.0000000000000000       -0.0000000000000000     
   96.233370879255560       -0.0000000000000000       -0.0000000000000000     
   98.345241926891276       -0.0000000000000000       -0.0000000000000000     
   100.65222479342999       -0.0000000000000000       -0.0000000000000000     
   103.17293318694121       -0.0000000000000000       -0.0000000000000000     
   105.92880492114838       -0.0000000000000000       -0.0000000000000000     
   108.94462220955062       -0.0000000000000000       -0.0000000000000000     
   112.24915355242759       -0.0000000000000000       -0.0000000000000000     
   115.87595125828456       -0.0000000000000000       -0.0000000000000000     
   119.86434995252864       -0.0000000000000000       -0.0000000000000000     
   124.26072711592441       -0.0000000000000000       -0.0000000000000000     
   129.12010871682511       -0.0000000000000000       -0.0000000000000000     
   134.50823430128665       -0.0000000000000000       -0.0000000000000000     
   140.50424099659159       -0.0000000000000000       -0.0000000000000000     
   147.20419178574079       -0.0000000000000000       -0.0000000000000000     
   154.72577122416391       -0.0000000000000000       -0.0000000000000000     
   163.21461936156322       -0.0000000000000000       -0.0000000000000000     
   172.85300128791050       -0.0000000000000000       -0.0000000000000000     
   183.87186436902670       -0.0000000000000000       -0.0000000000000000     
   196.56790119468712       -0.0000000000000000       -0.0000000000000000     
   211.32815809654923       -0.0000000000000000       -0.0000000000000000     
   228.66626179800687       -0.0000000000000000       -0.0000000000000000     
   249.27693505548666       -0.0000000000000000       -0.0000000000000000     
   274.11994522319628       -0.0000000000000000       -0.0000000000000000     
   304.55236830136857       -0.0000000000000000       -0.0000000000000000     
   342.54114446618524       -0.0000000000000000       -0.0000000000000000     
   391.00785482956275       -0.0000000000000000       -0.0000000000000000     
   454.37561583368250       -0.0000000000000000       -0.0000000000000000     
   539.32971363255319       -0.0000000000000000       -0.0000000000000000     
   655.24588709618752       -0.0000000000000000       -0.0000000000000000     
   810.65574785844467       -0.0000000000000000       -0.0000000000000000     
   990.73143934764391       -0.0000000000000000       -0.0000000000000000     
   1102.6912675126632       -0.0000000000000000       -0.0000000000000000     
   1035.1028425920993       -0.0000000000000000       -0.0000000000000000     
   860.31740837539974       -0.0000000000000000       -0.0000000000000000     
   694.36962760689107       -0.0000000000000000       -0.0000000000000000     
   568.02060756764627       -0.0000000000000000       -0.0000000000000000     
   475.49159703897340       -0.0000000000000000       -0.0000000000000000     
   406.90543959362594       -0.0000000000000000       -0.0000000000000000     
   354.81835101829876       -0.0000000000000000       -0.0000000000000000     
   314.25974328353766        0.0000000000000000       -0.0000000000000000     
   281.95545262570278        0.0000000000000000       -0.0000000000000000     
   255.71483982502096        0.0000000000000000       -0.0000000000000000     
   234.03698975772176        0.0000000000000000       -0.0000000000000000     
   215.86757536871539        0.0000000000000000       -0.0000000000000000     
   200.44819246788026        0.0000000000000000       -0.0000000000000000     
   187.22130554660862        0.0000000000000000       -0.0000000000000000     
   175.76891771816057        0.0000000000000000       -0.0000000000000000     
   165.77207308328812        0.0000000000000000       -0.0000000000000000     
   156.98351101151729        0.0000000000000000       -0.0000000000000000     
   149.20881025286835        0.0000000000000000       -0.0000000000000000     
   142.29313268296153        0.0000000000000000       -0.0000000000000000     
   136.11173622462579        0.0000000000000000       -0.0000000000000000     
   130.56307338242371        0.0000000000000000       -0.0000000000000000     
   125.56369491267034        0.0000000000000000       -0.0000000000000000     
   121.04443438079319        0.0000000000000000       -0.0000000000000000     
   116.94751535879145        0.0000000000000000       -0.0000000000000000     
   113.22433250450810        0.0000000000000000       -0.0000000000000000     
   109.83373120308062        0.0000000000000000       -0.0000000000000000     
   106.74066048916640        0.0000000000000000       -0.0000000000000000     
   103.91510856690461        0.0000000000000000       -0.0000000000000000     
   101.33125449769014        0.0000000000000000       -0.0000000000000000     
   98.966786846588263        0.0000000000000000       -0.0000000000000000     
   96.802352453448108        0.0000000000000000       -0.0000000000000000     
   94.821107488643648        0.0000000000000000       -0.0000000000000000     
   93.008349559298836        0.0000000000000000       -0.0000000000000000     
   91.351214532433403        0.0000000000000000       -0.0000000000000000     
   89.838425411260758        0.0000000000000000       -0.0000000000000000     
   88.460083373566292        0.0000000000000000       -0.0000000000000000     
   87.207493193789674        0.0000000000000000       -0.0000000000000000     
   86.073016893299339        0.0000000000000000       -0.0000000000000000     
   85.049950719700178        0.0000000000000000       -0.0000000000000000     
   84.132421536008451        0.0000000000000000       -0.0000000000000000     
   83.315299470680117        0.0000000000000000       -0.0000000000000000     
   82.594124289249422        0.0000000000000000       -0.0000000000000000     
   81.965043434839544        0.0000000000000000       -0.0000000000000000     
   81.424760076092497        0.0000000000000000       -0.0000000000000000     
   80.970489818540329        0.0000000000000000       -0.0000000000000000     
   80.599924995553607        0.0000000000000000       -0.0000000000000000     
   80.311205670557911        0.0000000000000000       -0.0000000000000000     
   80.102896663243214        0.0000000000000000       -0.0000000000000000     
   79.973970067018811        0.0000000000000000       -0.0000000000000000     
   79.923792859467497        0.0000000000000000       -0.0000000000000000     
   79.952119327404205        0.0000000000000000       -0.0000000000000000     
   80.059088137921790        0.0000000000000000       -0.0000000000000000     
   80.245223990553299        0.0000000000000000       -0.0000000000000000     
   80.511443887120208        0.0000000000000000       -0.0000000000000000     
   80.859068158576193        0.0000000000000000       -0.0000000000000000     
   81.289836495866027        0.0000000000000000       -0.0000000000000000     
   81.805929348436820        0.0000000000000000       -0.0000000000000000     
   82.409995183961527        0.0000000000000000        0.0000000000000000     
   75.934829914836129        2.3863481668604165        0.0000000000000000     
   76.838788131523131        2.4135646618547755        7.5849325176284038E-002
   77.826595424691320        2.4409730668496072       0.15357300827597414     
   78.901967429536072        2.4685896928671878       0.23335042973828068     
   80.069108492541659        2.4964315403307658       0.31537264482326710     
   81.332759306299081        2.5245165160730219       0.39984413548830056     
   82.698252477676931        2.5528636677160792       0.48698478948998408     
   84.171577286732514        2.5814934387702064       0.57703214899041055     
   85.759455156524680        2.6104279482095962       0.67024397898453469     
   87.469427674578711        2.6396912987740850       0.76690121577547821     
   89.309959400044377        2.6693099188229525       0.86731136797549857     
   91.290558175607686        2.6993129432379326       0.97181245770383395     
   93.421916264375938        2.7297326396412789        1.0807776085633976     
   95.716076380739523        2.7606048870597055        1.1946204106079135     
   98.186627621378975        2.7919697151139014        1.3138012221590465     
   100.84893748113504        2.8238719128155263        1.4388346056921339     
   103.72042762753279        2.8563617170461879        1.5702981422915940     
   106.82090299785075        2.8894955916596632        1.7088429292837013     
   110.17294619248491        2.9233371086843518        1.8552061423981570     
   113.80239222394589        2.9579579429553711        2.0102261422103038     
   117.73890264702294        2.9934389900804028        2.1748607312830197     
   122.01666321089382        3.0298716139457427        2.3502093320487467     
   126.67523578793762        3.0673590223409994        2.5375400674085045     
   131.76060389710378        3.1060177549601358        2.7383230009832906     
   137.32646222015370        3.1459792424073791        2.9542711506251833     
   143.43581479761880        3.1873913501514530        3.1873913501517830     
   150.16296486868643        3.2304197445403169        3.4400476267854523     
   157.59600233294867        3.2752487867184468        3.7150405119514014     
   165.83992294419326        3.3220814362742948        4.0157066276066082     
   175.02054581930912        3.3711372632260779        4.3460439720327679     
   185.28942891943393        3.4226470080733766        4.7108694620675662     
   196.83000515893741        3.4768409890997765        5.1160161556723320     
   209.86514845429329        3.5339266666012086        5.5685773821838183     
   224.66626879907128        3.5940471772037146        6.0772018871872158     
   241.56369345888351        3.6572064708959640        6.6524338744734868     
   260.95722344657435        3.7231357422127180        7.3070653210897030     
   283.32373147739605        3.7910566204285616        8.0564054089760155     
   309.21418263553124        3.8592636450786615        8.9182320881639008     
   339.22294530075686        3.9243956691529700        9.9118920155983137     
   373.89328749831117        3.9801942490442737        11.055414826061140     
   413.48938946196228        4.0154989480077603        12.358435005831515     
   457.52172415954504        4.0113897601675736        13.807294118320883     
   503.91484733647798        3.9382933547281671        15.338639903950805     
   547.95021190045702        3.7564329730383195        16.805315076551040     
   581.90312394648492        3.4266500419096837        17.963128587928619     
   597.17113922660781        2.9357835629705202        18.535807917474397     
   589.17094239280800        2.3206003145719065        18.369442984029618     
   560.75107326536192        1.6584060979137034        17.544103966270875     
   519.95500749415555        1.0260124348645117        16.308000656343260     
   474.97080417890334       0.46885454405687615        14.919193499209413     
   431.24455814379746       -1.4014753809970729E-012   13.552406213975285     
   391.41117594850249      -0.38637092390669459        12.294522148206065     
   356.28887113704434      -0.70305470073919407        11.174734468570252     
   325.77951090001983      -0.96348407200898578        10.192596825589993     
   299.41419416877937       -1.1793193166564149        9.3352736407109713     
   276.62672979868569       -1.3599388066109435        8.5863157000988881     
   256.87278562768040       -1.5126454995942806        7.9295654020128845     
   239.67289191968726       -1.6430601437835572        7.3506285362109240     
   224.62126994128229       -1.7555038503367970        6.8372360778976917     
   211.38088063658708       -1.8533133079943680        6.3791462477552221     
   199.67398001672379       -1.9390839937766924        5.9678868848440434     
   189.27213527907577       -2.0148526050924174        5.5964684055309224     
   179.98720749775691       -2.0822324297115511        5.2591187878667558     
   171.66373086866361       -2.1425136132943723        4.9510568369084682     
   164.17267607191911       -2.1967376586166814        4.6683051526069219     
   157.40642700125164       -2.2457531034490632        4.4075386335984614     
   151.27476400936430       -2.2902574385114813        4.1659628151862700     
   145.70165927977379       -2.3308289225957721        3.9412164695410743     
   140.62271833844414       -2.3679509338568034        3.7312936165344670     
   135.98313230444933       -2.4020307668064058        3.5344809405793178     
   131.73603301451354       -2.4334142637395644        3.3493073976267898     
   127.84116614298662       -2.4623972970804573        3.1745034669637091     
   124.26381591543905       -2.4892348520464855        3.0089680475258755     
   120.97392956898922       -2.5141482663272483        2.8517414311638749     
   117.94540105671184       -2.5373310435405845        2.7019831244683274     
   115.15548229063863       -2.5589535548960383        2.5589535548952433     
   112.58429702893035       -2.5791668681182309        2.4219989020957957     
   110.21443778946364       -2.5981058867521676        2.2905384546882250     
   108.03063026860484       -2.6158919411713493        2.1640540166258275     
   106.01945293413533       -2.6326349411476562        2.0420809839208514     
   104.16910195511382       -2.6484351760011053        1.9242007880294965     
   102.46919358929499       -2.6633848301648633        1.8100344614812389     
   100.91059769300939       -2.6775692680500613        1.6992371280150917     
   99.485297242650518       -2.6910681313320191        1.5914932563727877     
   98.186269732710869       -2.7039562834358262        1.4865125461441060     
   97.007387097655467       -2.7163046295055353        1.3840263373120045     
   95.943331436231247       -2.7281808350732430        1.2837844536726881     
   94.989524329964397       -2.7396499626845014        1.1855524050847175     
   94.142067968240028       -2.7507750426464690        1.0891088852849031     
   93.397696640644270       -2.7616175916654884       0.99424351137795197     
   92.753737449156134       -2.7722380912965239       0.90075475850878728     
   92.208079341150167       -2.7826964367375062       0.80844804900388334     
   91.759149779476147       -2.7930523654928314       0.71713395967984206     
   91.405898556863960       -2.8033658747493133       0.62662651425603710     
   91.147788436045602       -2.8136976359188743       0.53674153000922031     
   90.984792460976877       -2.8241094146848962       0.44729498905955184     
   90.917397944587378       -2.8346645050359132       0.35810140502385968     
   90.946617300692125       -2.8454281861872408       0.26897215521610207     
   91.074006058381229       -2.8564682119973530       0.17971374707785992     
   91.301688583259789       -2.8678553435152772        9.0125984998569428E-002
   91.632392239232033       -2.8796639366990004       -5.9558104282131909E-013
   92.069490966502030       -2.8919725991948759       -9.0883900292984529E-002
   92.617059537603907       -2.9048649324620177      -0.18275861064325868     
   93.279940098050659       -2.9184303785955161      -0.27587289413699217     
   94.063823020114953       -2.9327651951235794      -0.37049440422898156     
   94.975344621391713       -2.9479735860609493      -0.46691314652043692     
   96.022204955801882       -2.9641690239078891      -0.56544548241135484     
   97.213309715703971       -2.9814758055124484      -0.66643880064983574     
   98.558941346395486       -3.0000308953337980      -0.77027701367735368     
   100.07096584535932       -3.0199861234334988      -0.87738707581587871     
   101.76308350346575       -3.0415108235471471      -0.98824677287680118     
   103.65113418980471       -3.0647950203306809       -1.1033941020174005     
   105.75347088989541       -3.0900533064055540       -1.2234386526847942     
   108.09141936719504       -3.1175295920750585       -1.3490755228415976     
   110.68984744283506       -3.1475029677427577       -1.4811024716302059     
   113.57787507605568       -3.1802949972031840       -1.6204412379757884     
   116.78976705487005       -3.2162788679988239       -1.7681642704326546     
   120.36606497793809       -3.2558909761896304       -1.9255285556560258     
   124.35503629542268       -3.2996457371578209       -2.0940188598607685     
   128.81454850453392       -3.3481547221550230       -2.2754035995248922     
   133.81452089197373       -3.4021516701050287       -2.4718078750570598     
   139.44017200895553       -3.4625255919624096       -2.6858101581715634     
   145.79638059564076       -3.5303651946090073       -2.9205720845391934     
   153.01363130194460       -3.6070194088198466       -3.1800153738320880     
   161.25625900810306       -3.6941812622710235       -3.4690671130940385     
   170.73409772218440       -3.7940063088380427       -3.7940063088400060     
   181.71929202111662       -3.9092834203301408       -4.1629640158287362     
   194.57114683374917       -4.0436870425885800       -4.5866626198882345     
   209.77387577059685       -4.2021600477174861       -5.0795389208805153     
   227.99577354846843       -4.3915132618806787       -5.6615047830007965     
   250.18542437109377       -4.6213990683698229       -6.3608101249901470     
   277.73500502303506       -4.9059616128744468       -7.2189032944770277     
   312.77209330197991       -5.2667803550474455       -8.2991178733959519     
   358.71470116208917       -5.7384562712689604       -9.7031996414822963     
   421.41191219376299       -6.3800579885131530       -11.605282398374667     
   511.72968720937689       -7.3009632139569778       -14.328947104028517     
   652.20936920729775       -8.7269874434610841       -18.545792343152971     
   897.32011847952936       -11.199340475678884       -25.880148852720623     
   1407.5256225671076       -16.283354454469407       -41.127058689101503     
   2581.1347085236180       -27.476870717864298       -76.319944430144446     
   2314.0082496689233       -22.471913255891938       -69.161437476557055     
   1268.5558203778764       -11.122251817460501       -38.283041859141001     
   828.00556442696063       -6.4711901808295140       -25.203621719708721     
   608.51624505937787       -4.1716390247215616       -18.662840172933116     
   479.60799152091164       -2.8242652025953268       -14.805316673778435     
   395.38547965427887       -1.9437747673272210       -12.272510881423203     
   336.25843494157186       -1.3244397741892333       -10.484020348105002     
   292.57005461684304      -0.86526800531480574       -9.1535793694085914     
   259.03602125415586      -0.51114841679201195       -8.1244714326111342     
   232.52953217829810      -0.22953521948989639       -7.3039291138029547     
   211.08512039061458        2.0609238836818020E-012  -6.6336171511886963     
   193.40651373034532       0.19091599318536026       -6.0750454069249287     
   178.60473471169581       0.35243564558447510       -5.6018041732909216     
   166.05007442720859       0.49108859370830993       -5.1951746652819129     
   155.28416181013245       0.61162635292620693       -4.8415211128863183     
   145.96550379246256       0.71758847447101870       -4.5306753175953522     
   137.83453514219389       0.81166554394724644       -4.2548997878280854     
   130.69049131634461       0.89593919334661642       -4.0082015416378995     
   124.37569135769468       0.97204510117846998       -3.7858657124792785     
   118.76460356950186        1.0412863247201938       -3.5841310384594260     
   113.75607922232173        1.1047137558757674       -3.3999593397460606     
   109.26773353687980        1.1631843073193873       -3.2308687043732909     
   105.23181231445412        1.2174036993230251       -3.0748107541535452     
   101.59210563508933        1.2679583988131546       -2.9300789784495431     
   98.301611962311441        1.3153397877599948       -2.7952393334451640     
   95.320748281014630        1.3599626797548772       -2.6690770423796035     
   92.615963108191224        1.4021796683840093       -2.5505553482632433     
   90.158650556534369        1.4422923622025041       -2.4387831971265377     
   87.924292015041303        1.4805602668318234       -2.3329896720130687     
   85.891771797063896        1.5172078696511582       -2.2325035850004071     
   84.042827093504840        1.5524303376575757       -2.1367370495412672     
   82.361602585524224        1.5863981353473426       -2.0451721526066140     
   80.834287331094458        1.6192607943238806       -1.9573500614954771     
   79.448816860919209        1.6511500112821118       -1.8728620580187547     
   78.194627360372237        1.6821822102601895       -1.7913421096443081     
   77.062451761853936        1.7124606745802526       -1.7124606745790123     
   76.044149797107039        1.7420773309137192       -1.6359195036944902     