 VARIABLES = "x_1", "x_2", "x_3"
 ZONE F = POINT , I =         201  , J =         101
   1161.7054049030385        0.0000000000000000        0.0000000000000000     
   1161.7054049030385        0.0000000000000000        0.0000000000000000     
   1161.7054049030385        0.0000000000000000        0.0000000000000000     
   1161.7054049030385        0.0000000000000000        0.0000000000000000     
   1161.7054049030385        0.0000000000000000        0.0000000000000000     
   1161.7054049030385        0.0000000000000000        0.0000000000000000     
   1161.7054049030385        0.0000000000000000        0.0000000000000000     
   1161.7054049030385        0.0000000000000000        0.0000000000000000     
   1161.7054049030385        0.0000000000000000        0.0000000000000000     
   1161.7054049030385        0.0000000000000000        0.0000000000000000     
   1161.7054049030385        0.0000000000000000        0.0000000000000000     
   1161.7054049030385        0.0000000000000000        0.0000000000000000     
   1161.7054049030385        0.0000000000000000        0.0000000000000000     
   1161.7054049030385        0.0000000000000000        0.0000000000000000     
   1161.7054049030385        0.0000000000000000        0.0000000000000000     
   1161.7054049030385        0.0000000000000000        0.0000000000000000     
   1161.7054049030385        0.0000000000000000        0.0000000000000000     
   1161.7054049030385        0.0000000000000000        0.0000000000000000     
   1161.7054049030385        0.0000000000000000        0.0000000000000000     
   1161.7054049030385        0.0000000000000000        0.0000000000000000     
   1161.7054049030385        0.0000000000000000        0.0000000000000000     
   1161.7054049030385        0.0000000000000000        0.0000000000000000     
   1161.7054049030385        0.0000000000000000        0.0000000000000000     
   1161.7054049030385        0.0000000000000000        0.0000000000000000     
   1161.7054049030385        0.0000000000000000        0.0000000000000000     
   1161.7054049030385        0.0000000000000000        0.0000000000000000     
   1161.7054049030385        0.0000000000000000        0.0000000000000000     
   1161.7054049030385        0.0000000000000000        0.0000000000000000     
   1161.7054049030385        0.0000000000000000        0.0000000000000000     
   1161.7054049030385        0.0000000000000000        0.0000000000000000     
   1161.7054049030385        0.0000000000000000        0.0000000000000000     
   1161.7054049030385        0.0000000000000000        0.0000000000000000     
   1161.7054049030385        0.0000000000000000        0.0000000000000000     
   1161.7054049030385        0.0000000000000000        0.0000000000000000     
   1161.7054049030385        0.0000000000000000        0.0000000000000000     
   1161.7054049030385        0.0000000000000000        0.0000000000000000     
   1161.7054049030385        0.0000000000000000        0.0000000000000000     
   1161.7054049030385        0.0000000000000000        0.0000000000000000     
   1161.7054049030385        0.0000000000000000        0.0000000000000000     
   1161.7054049030385        0.0000000000000000        0.0000000000000000     
   1161.7054049030385        0.0000000000000000        0.0000000000000000     
   1161.7054049030385        0.0000000000000000        0.0000000000000000     
   1161.7054049030385        0.0000000000000000        0.0000000000000000     
   1161.7054049030385        0.0000000000000000        0.0000000000000000     
   1161.7054049030385        0.0000000000000000        0.0000000000000000     
   1161.7054049030385        0.0000000000000000        0.0000000000000000     
   1161.7054049030385        0.0000000000000000        0.0000000000000000     
   1161.7054049030385        0.0000000000000000        0.0000000000000000     
   1161.7054049030385        0.0000000000000000        0.0000000000000000     
   1161.7054049030385        0.0000000000000000        0.0000000000000000     
   1161.7054049030385       -0.0000000000000000        0.0000000000000000     
   1161.7054049030385       -0.0000000000000000        0.0000000000000000     
   1161.7054049030385       -0.0000000000000000        0.0000000000000000     
   1161.7054049030385       -0.0000000000000000        0.0000000000000000     
   1161.7054049030385       -0.0000000000000000        0.0000000000000000     
   1161.7054049030385       -0.0000000000000000        0.0000000000000000     
   1161.7054049030385       -0.0000000000000000        0.0000000000000000     
   1161.7054049030385       -0.0000000000000000        0.0000000000000000     
   1161.7054049030385       -0.0000000000000000        0.0000000000000000     
   1161.7054049030385       -0.0000000000000000        0.0000000000000000     
   1161.7054049030385       -0.0000000000000000        0.0000000000000000     
   1161.7054049030385       -0.0000000000000000        0.0000000000000000     
   1161.7054049030385       -0.0000000000000000        0.0000000000000000     
   1161.7054049030385       -0.0000000000000000        0.0000000000000000     
   1161.7054049030385       -0.0000000000000000        0.0000000000000000     
   1161.7054049030385       -0.0000000000000000        0.0000000000000000     
   1161.7054049030385       -0.0000000000000000        0.0000000000000000     
   1161.7054049030385       -0.0000000000000000        0.0000000000000000     
   1161.7054049030385       -0.0000000000000000        0.0000000000000000     
   1161.7054049030385       -0.0000000000000000        0.0000000000000000     
   1161.7054049030385       -0.0000000000000000        0.0000000000000000     
   1161.7054049030385       -0.0000000000000000        0.0000000000000000     
   1161.7054049030385       -0.0000000000000000        0.0000000000000000     
   1161.7054049030385       -0.0000000000000000        0.0000000000000000     
   1161.7054049030385       -0.0000000000000000        0.0000000000000000     
   1161.7054049030385       -0.0000000000000000        0.0000000000000000     
   1161.7054049030385       -0.0000000000000000        0.0000000000000000     
   1161.7054049030385       -0.0000000000000000        0.0000000000000000     
   1161.7054049030385       -0.0000000000000000        0.0000000000000000     
   1161.7054049030385       -0.0000000000000000        0.0000000000000000     
   1161.7054049030385       -0.0000000000000000        0.0000000000000000     
   1161.7054049030385       -0.0000000000000000        0.0000000000000000     
   1161.7054049030385       -0.0000000000000000        0.0000000000000000     
   1161.7054049030385       -0.0000000000000000        0.0000000000000000     
   1161.7054049030385       -0.0000000000000000        0.0000000000000000     
   1161.7054049030385       -0.0000000000000000        0.0000000000000000     
   1161.7054049030385       -0.0000000000000000        0.0000000000000000     
   1161.7054049030385       -0.0000000000000000        0.0000000000000000     
   1161.7054049030385       -0.0000000000000000        0.0000000000000000     
   1161.7054049030385       -0.0000000000000000        0.0000000000000000     
   1161.7054049030385       -0.0000000000000000        0.0000000000000000     
   1161.7054049030385       -0.0000000000000000        0.0000000000000000     
   1161.7054049030385       -0.0000000000000000        0.0000000000000000     
   1161.7054049030385       -0.0000000000000000        0.0000000000000000     
   1161.7054049030385       -0.0000000000000000        0.0000000000000000     
   1161.7054049030385       -0.0000000000000000        0.0000000000000000     
   1161.7054049030385       -0.0000000000000000        0.0000000000000000     
   1161.7054049030385       -0.0000000000000000        0.0000000000000000     
   1161.7054049030385       -0.0000000000000000        0.0000000000000000     
   1161.7054049030385       -0.0000000000000000        0.0000000000000000     
   1161.7054049030385       -0.0000000000000000       -0.0000000000000000     
   1161.7054049030385       -0.0000000000000000       -0.0000000000000000     
   1161.7054049030385       -0.0000000000000000       -0.0000000000000000     
   1161.7054049030385       -0.0000000000000000       -0.0000000000000000     
   1161.7054049030385       -0.0000000000000000       -0.0000000000000000     
   1161.7054049030385       -0.0000000000000000       -0.0000000000000000     
   1161.7054049030385       -0.0000000000000000       -0.0000000000000000     
   1161.7054049030385       -0.0000000000000000       -0.0000000000000000     
   1161.7054049030385       -0.0000000000000000       -0.0000000000000000     
   1161.7054049030385       -0.0000000000000000       -0.0000000000000000     
   1161.7054049030385       -0.0000000000000000       -0.0000000000000000     
   1161.7054049030385       -0.0000000000000000       -0.0000000000000000     
   1161.7054049030385       -0.0000000000000000       -0.0000000000000000     
   1161.7054049030385       -0.0000000000000000       -0.0000000000000000     
   1161.7054049030385       -0.0000000000000000       -0.0000000000000000     
   1161.7054049030385       -0.0000000000000000       -0.0000000000000000     
   1161.7054049030385       -0.0000000000000000       -0.0000000000000000     
   1161.7054049030385       -0.0000000000000000       -0.0000000000000000     
   1161.7054049030385       -0.0000000000000000       -0.0000000000000000     
   1161.7054049030385       -0.0000000000000000       -0.0000000000000000     
   1161.7054049030385       -0.0000000000000000       -0.0000000000000000     
   1161.7054049030385       -0.0000000000000000       -0.0000000000000000     
   1161.7054049030385       -0.0000000000000000       -0.0000000000000000     
   1161.7054049030385       -0.0000000000000000       -0.0000000000000000     
   1161.7054049030385       -0.0000000000000000       -0.0000000000000000     
   1161.7054049030385       -0.0000000000000000       -0.0000000000000000     
   1161.7054049030385       -0.0000000000000000       -0.0000000000000000     
   1161.7054049030385       -0.0000000000000000       -0.0000000000000000     
   1161.7054049030385       -0.0000000000000000       -0.0000000000000000     
   1161.7054049030385       -0.0000000000000000       -0.0000000000000000     
   1161.7054049030385       -0.0000000000000000       -0.0000000000000000     
   1161.7054049030385       -0.0000000000000000       -0.0000000000000000     
   1161.7054049030385       -0.0000000000000000       -0.0000000000000000     
   1161.7054049030385       -0.0000000000000000       -0.0000000000000000     
   1161.7054049030385       -0.0000000000000000       -0.0000000000000000     
   1161.7054049030385       -0.0000000000000000       -0.0000000000000000     
   1161.7054049030385       -0.0000000000000000       -0.0000000000000000     
   1161.7054049030385       -0.0000000000000000       -0.0000000000000000     
   1161.7054049030385       -0.0000000000000000       -0.0000000000000000     
   1161.7054049030385       -0.0000000000000000       -0.0000000000000000     
   1161.7054049030385       -0.0000000000000000       -0.0000000000000000     
   1161.7054049030385       -0.0000000000000000       -0.0000000000000000     
   1161.7054049030385       -0.0000000000000000       -0.0000000000000000     
   1161.7054049030385       -0.0000000000000000       -0.0000000000000000     
   1161.7054049030385       -0.0000000000000000       -0.0000000000000000     
   1161.7054049030385       -0.0000000000000000       -0.0000000000000000     
   1161.7054049030385       -0.0000000000000000       -0.0000000000000000     
   1161.7054049030385       -0.0000000000000000       -0.0000000000000000     
   1161.7054049030385       -0.0000000000000000       -0.0000000000000000     
   1161.7054049030385       -0.0000000000000000       -0.0000000000000000     
   1161.7054049030385        0.0000000000000000       -0.0000000000000000     
   1161.7054049030385        0.0000000000000000       -0.0000000000000000     
   1161.7054049030385        0.0000000000000000       -0.0000000000000000     
   1161.7054049030385        0.0000000000000000       -0.0000000000000000     
   1161.7054049030385        0.0000000000000000       -0.0000000000000000     
   1161.7054049030385        0.0000000000000000       -0.0000000000000000     
   1161.7054049030385        0.0000000000000000       -0.0000000000000000     
   1161.7054049030385        0.0000000000000000       -0.0000000000000000     
   1161.7054049030385        0.0000000000000000       -0.0000000000000000     
   1161.7054049030385        0.0000000000000000       -0.0000000000000000     
   1161.7054049030385        0.0000000000000000       -0.0000000000000000     
   1161.7054049030385        0.0000000000000000       -0.0000000000000000     
   1161.7054049030385        0.0000000000000000       -0.0000000000000000     
   1161.7054049030385        0.0000000000000000       -0.0000000000000000     
   1161.7054049030385        0.0000000000000000       -0.0000000000000000     
   1161.7054049030385        0.0000000000000000       -0.0000000000000000     
   1161.7054049030385        0.0000000000000000       -0.0000000000000000     
   1161.7054049030385        0.0000000000000000       -0.0000000000000000     
   1161.7054049030385        0.0000000000000000       -0.0000000000000000     
   1161.7054049030385        0.0000000000000000       -0.0000000000000000     
   1161.7054049030385        0.0000000000000000       -0.0000000000000000     
   1161.7054049030385        0.0000000000000000       -0.0000000000000000     
   1161.7054049030385        0.0000000000000000       -0.0000000000000000     
   1161.7054049030385        0.0000000000000000       -0.0000000000000000     
   1161.7054049030385        0.0000000000000000       -0.0000000000000000     
   1161.7054049030385        0.0000000000000000       -0.0000000000000000     
   1161.7054049030385        0.0000000000000000       -0.0000000000000000     
   1161.7054049030385        0.0000000000000000       -0.0000000000000000     
   1161.7054049030385        0.0000000000000000       -0.0000000000000000     
   1161.7054049030385        0.0000000000000000       -0.0000000000000000     
   1161.7054049030385        0.0000000000000000       -0.0000000000000000     
   1161.7054049030385        0.0000000000000000       -0.0000000000000000     
   1161.7054049030385        0.0000000000000000       -0.0000000000000000     
   1161.7054049030385        0.0000000000000000       -0.0000000000000000     
   1161.7054049030385        0.0000000000000000       -0.0000000000000000     
   1161.7054049030385        0.0000000000000000       -0.0000000000000000     
   1161.7054049030385        0.0000000000000000       -0.0000000000000000     
   1161.7054049030385        0.0000000000000000       -0.0000000000000000     
   1161.7054049030385        0.0000000000000000       -0.0000000000000000     
   1161.7054049030385        0.0000000000000000       -0.0000000000000000     
   1161.7054049030385        0.0000000000000000       -0.0000000000000000     
   1161.7054049030385        0.0000000000000000       -0.0000000000000000     
   1161.7054049030385        0.0000000000000000       -0.0000000000000000     
   1161.7054049030385        0.0000000000000000       -0.0000000000000000     
   1161.7054049030385        0.0000000000000000       -0.0000000000000000     
   1161.7054049030385        0.0000000000000000       -0.0000000000000000     
   1161.7054049030385        0.0000000000000000       -0.0000000000000000     
   1161.7054049030385        0.0000000000000000       -0.0000000000000000     
   1161.7054049030385        0.0000000000000000       -0.0000000000000000     
   1161.7054049030385        0.0000000000000000       -0.0000000000000000     
   1161.7054049030385        0.0000000000000000        0.0000000000000000     
   1580.6412410507660        49.673652160357371        0.0000000000000000     
   1640.7706290469660        51.537850931466643        1.6196422146749505     
   1705.1020326108182        53.479252370238655        3.3646293678477472     
   1774.0073070519493        55.503003232086414        5.2465785194661576     
   1847.8984257373249        57.614628165467046        7.2784201655475744     
   1927.2323791423032        59.820052989135924        9.4745656128690321     
   2012.5167036645246        62.125626836476698        11.851097138282311     
   2104.3157130557770        64.538141988825430        14.425983891479952     
   2203.2575079304374        67.064849762710551        17.219326733683150     
   2310.0418381756249        69.713470204955925        20.253635370521359     
   2425.4488871734220        72.492192535101410        23.554141177764169     
   2550.3490325467055        75.409662191846223        27.149148946534094     
   2685.7136112907870        78.474948905162918        31.070430260526329     
   2832.6266713591622        81.697488320188839        35.353660170706057     
   2992.2976180374280        85.086987205464325        40.038896974858375     
   3166.0745490212230        88.653279014799310        45.171101839174092     
   3355.4578991359558        92.406112329872187        50.800690144398921     
   3562.1137593202147        96.354849244750170        56.984098992694399     
   3787.8858610053239        100.50804379499263        63.784344150719946     
   4034.8046810687465        104.87286182134876        71.271523296592378     
   4305.0913651463397        109.45429300392222        79.523198740116058     
   4601.1531145413728        114.25409322226315        88.624559166069943     
   4925.5652479060100        119.26938133816724        98.668213194568040     
   5281.0332433434050        124.49080023319381        109.75340406376584     
   5670.3256187236148        129.90014019000412        121.98435115288093     
   6096.1655133008089        135.46731863030604        135.46731863032005     
   6561.0654422359221        141.14662272654601        150.30588683091688     
   7067.0863626823420        146.87216485421331        166.59376983025876     
   7615.4999098101134        152.55259667988511        184.40441190178922     
   8206.3332842830332        158.06530484518049        203.77656312117040     
   8837.7828486413091        163.25060313104447        224.69517865561374     
   9505.4994337280878        167.90686982080729        247.06745616055255     
   10201.780994570125        171.78815143472301        270.69481199127495     
   10914.760992648771        174.60638904617215        295.24327998719463     
   11627.753088495208        176.04091586910346        320.21723721112687     
   12318.992107696226        175.75784727641457        344.94419748972268     
   12962.066802499814        173.44092183811523        368.58072055816945     
   13527.321072215016        168.83280703472840        390.14959735957848     
   13984.352390899307        161.78189806735276        408.61443108977909     
   14305.438984216486        152.28523185319125        422.98850374556218     
   14469.343059467617        140.51541179631769        432.46196960505017     
   14464.626662499559        126.82076547334387        436.51993794985998     
   14291.575423025604        111.69430076251645        435.02057983135450     
   13962.152364249729        95.716523831147853        428.21111212683331     
   13497.995607007260        79.485579831157310        416.67800152635988     
   12927.059022930231        63.551375651238715        401.24759427793310     
   12279.806692593596        48.367156665910215        382.86546851475714     
   11585.815916716314        34.264736496537068        362.48304937395579     
   10871.325239404217        21.452077041897741        340.97100053703753     
   10157.880431080785        10.027076098565352        319.06673496513451     
   9461.9397794901306       -3.0749780854070625E-011   297.35343679644370     
   8795.1584201295045       -8.6819020342389948        276.26260218867662     
   8165.0570450108435       -16.111874948489493        256.09091888707690     
   7575.8379857592672       -22.405335471326744        237.02369124291451     
   7029.1913768463028       -27.686266491817271        219.15936603458607     
   6525.0057312407616       -32.077914212161893        202.53197944450400     
   6061.9491553298949       -35.696969946321204        187.13006974797773     
   5637.9193092715695       -38.650347299334769        172.91171407683933     
   5250.3766077937889       -41.033764759275279        159.81596210698044     
   4896.5813802715702       -42.931505481503763        147.77121111766698     
   4573.7561354951104       -44.416890538435155        136.70113278259933     
   4279.1917028133075       -45.553142502410466        126.52872083201071     
   4010.3126559778284       -46.394425368612730        117.17894247865182     
   3764.7140343742426       -46.986926288921715        108.58038016868228     
   3540.1783960521348       -47.369899711095186        100.66616103765080     
   3334.6798082472096       -47.576631215449346        93.374396239954123     
   3146.3794944273604       -47.635301821037281        86.648292344634271     
   2973.6164392946575       -47.569747905927926        80.436050917871100     
   2814.8952140657893       -47.400120191204380        74.690637953523932     
   2668.8725374850737       -47.143449625583251        69.369479557634122     
   2534.3435600855169       -46.814129947644368        64.434122082506221     
   2410.2284917119132       -46.424327174078378        59.849881958652098     
   2295.5599404128802       -45.984325900034918        55.585501386687838     
   2189.4711610420491       -45.502821503108827        51.612819758172407     
   2091.1852998092795       -44.987166362260318        47.906466378490244     
   2000.0056489510498       -44.443577182703528        44.443577182689722     
   1915.3068810797727       -43.877309538917572        41.203536244132692     
   1836.5272067610340       -43.292804851766036        38.167741672855946     
   1763.1613852591358       -42.693814219320210        35.319394770192773     
   1694.7545128887996       -42.083502827264596        32.643310896296583     
   1630.8965130630886       -41.464538068831729        30.125750311093043     
   1571.2172549268803       -40.839163997312021        27.754267192639599     
   1515.3822320624081       -40.209264306047181        25.517575068661088     
   1463.0887382556389       -39.576415671024087        23.405426982134667     
   1414.0624831408179       -38.941932989900081        21.408508826567868     
   1368.0545963312893       -38.306907799610435        19.518344415329672     
   1324.8389741784383       -37.672240944791689        17.727210981832471     
   1284.2099284552910       -37.038670394328555        16.028063937083765     
   1245.9801009785278       -36.406794957618104        14.414469834268978     
   1209.9786124450166       -35.777094530755505        12.880546604465565     
   1176.0494175746906       -35.149947401686191        11.420910232351268     
   1144.0498420439051       -34.525645059011069        10.030627135629254     
   1113.8492796936896       -33.904404878725188        8.7051715970883929     
   1085.3280311407150       -33.286381004350012        7.4403876742701023     
   1058.3762672410355       -32.671673686720794        6.2324550792912961     
   1032.8931028925003       -32.060337308489210        5.0778585812144525     
   1008.7857684438715       -31.452387283851650        3.9733605362089071     
   985.96886753716751       -30.847805995001202        2.9159761973404721     
   964.36371157182646       -30.246547902404505        1.9029514968452010     
   943.89772216936956       -29.648543945458290       0.93174302982188251     
   924.50389405705619       -29.053705332753083       -6.0089776099845998E-012
   906.12031169763941       -28.461926806534755      -0.89445208393449949     
   888.68971378669448       -27.873089453574575       -1.7536261483087605     
   872.15910043373003       -27.287063124170331       -2.5793868963858482     
   856.47937845135505       -26.703708512103177       -3.3734628985458750     
   841.60504070930938       -26.122878940814928       -4.1374575607124120     
   827.49387597699877       -25.544421894638969       -4.8728590861835253     
   814.10670608770079       -24.968180328437210       -5.5810495331631635     
   801.40714761727509       -24.393993784320283       -6.2633130589008399     
   789.36139558635989       -23.821699340133392       -6.9208434313075511     
   777.93802697323042       -23.251132410973085       -7.5547508800503094     
   767.10782206957128       -22.682127422072984       -8.1660683512929069     
   756.84360192753718       -22.114518368886305       -8.7557572233197138     
   747.12008033729990       -21.548139278037024       -9.3247125341421508     
   737.91372894294750       -20.982824580958376       -9.8737677667474841     
   729.20265425388357       -20.418409410441715       -10.403699232822708     
   720.96648544114237       -19.854729828943814       -10.915230091498627     
   713.18627192540282       -19.291622996314228       -11.409034035846663     
   705.84438986772227       -18.728927283578955       -11.885738676466717     
   698.92445676677346       -18.166482338529807       -12.345928648479646     
   692.41125344896670       -17.604129108100508       -12.790148465538785     
   686.29065281154419       -17.041709821843472       -13.218905142063772     
   680.54955474457518       -16.479067940241734       -13.632670602743426     
   675.17582671670266       -15.916048071085687       -14.031883896422617     
   670.15824956230040       -15.352495856703436       -14.416953229756015     
   665.48646805511964       -14.788257834447803       -14.788257834455456     
   661.15094589617854       -14.223181272504490       -15.146149680558338     
   657.14292478209165       -13.657113982787038       -15.490955046882823     
   653.45438725481529       -13.089904112420371       -15.822975958697564     
   650.07802306524161       -12.521399915079080       -16.142491501603061     
   647.00719881169084       -11.951449503236480       -16.449759019688184     
   644.23593064038778       -11.379900582190027       -16.745015205176049     
   641.75885981883903       -10.806600166556844       -17.028477085999093     
   639.57123101487412       -10.231394279773649       -17.300342917035113     
   637.66887313425627       -9.6541276369894824       -17.560792980084912     
   636.04818258842204       -9.0746433116010330       -17.809990297072545     
   634.70610888126077       -8.4927823855506013       -18.048081260392284     
   633.64014242009648       -7.9083835833802363       -18.275196183807950     
   632.84830447134448       -7.3212828899145439       -18.491449776823121     
   632.32913919585258       -6.7313131513236097       -18.696941544981346     
   632.08170771281436       -6.1383036591985602       -18.891756118116625     
   632.10558415455000       -5.5420797171508429       -19.075963508154540     
   632.40085368746429       -4.9424621893244725       -19.249619297655929     
   632.96811248727477       -4.3392670300833238       -19.412764759896376     
   633.80846966926549       -3.7323047940060303       -19.565426910880038     
   634.92355118697878       -3.1213801251835798       -19.707618493292671     
   636.31550572554033       -2.5062912246727143       -19.839337892001030     
   637.98701262883981       -1.8868292948061953       -19.960568980301137     
   639.94129191319007       -1.2627779589013972       -20.071280895701150     
   642.18211643397274      -0.63391265473812042       -20.171427743591579     
   644.71382628633455        6.2946460663575283E-012  -20.260948226702560     
   647.54134553630252       0.63920287237074025       -20.339765197768962     
   650.67020139496105        1.2839490109900022       -20.407785132314590     
   654.10654596570566        1.9345023776819419       -20.464897517921692     
   657.85718071326255        2.5911386164285228       -20.510974155764185     
   661.92958382332529        3.2541458626989939       -20.545868369546685     
   666.33194064356894        3.9238255963495843       -20.569414116299324     
   671.07317742064777        4.6004935416415620       -20.581424992721633     
   676.16299857390243        5.2844806182558299       -20.581693129939278     
   681.61192777516624        5.9761339475452102       -20.569987968624723     
   687.43135313561925        6.6758179186628919       -20.546054905425198     
   693.63357683549089        7.3839153196358929       -20.509613800526974     
   700.23186957100199        8.1008285389239223       -20.460357334948448     
   707.24053023572139        8.8269808435166350       -20.397949204779998     
   714.67495130110422        9.5628177401830179       -20.322022138057726     
   722.55169041398233        10.308808427100152       -20.232175718249689     
   730.88854878789675        11.065447343757560       -20.127973996422842     
   739.70465703127672        11.833255827768271       -20.008942872020178     
   749.02056912944659        12.612783888019306       -19.874567219778243     
   758.85836538038825        13.404612104475138       -19.724287737619800     
   769.24176517732076        14.209353665910053       -19.557497487324934     
   780.19625063584488        15.027656557902253       -19.373538096367341     
   791.74920218125123        15.860205914577875       -19.171695585449093     
   803.93004734445572        16.707726548861647       -18.951195781913274     
   816.77042416492134        17.570985677376587       -18.711199274288624     
   830.30436076837077        18.450795857654700       -18.450795857641339     
   844.56847287872404        19.348018156978810       -18.168998413081582     