 VARIABLES = "x_1", "x_2", "x_3"
 ZONE F = POINT , I =         201  , J =         101
   37.161895161745164        0.0000000000000000        0.0000000000000000     
   37.062823575593391        0.0000000000000000        0.0000000000000000     
   36.973434850281414        0.0000000000000000        0.0000000000000000     
   36.893876192374016        0.0000000000000000        0.0000000000000000     
   36.824274400918796        0.0000000000000000        0.0000000000000000     
   36.764737180359852        0.0000000000000000        0.0000000000000000     
   36.715354293568851        0.0000000000000000        0.0000000000000000     
   36.676198550675998        0.0000000000000000        0.0000000000000000     
   36.647326630584296        0.0000000000000000        0.0000000000000000     
   36.628779732979375        0.0000000000000000        0.0000000000000000     
   36.620584059352275        0.0000000000000000        0.0000000000000000     
   36.622751122083187        0.0000000000000000        0.0000000000000000     
   36.635277881037382        0.0000000000000000        0.0000000000000000     
   36.658146707446427        0.0000000000000000        0.0000000000000000     
   36.691325175133571        0.0000000000000000        0.0000000000000000     
   36.734765679438141        0.0000000000000000        0.0000000000000000     
   36.788404884543681        0.0000000000000000        0.0000000000000000     
   36.852163000365564        0.0000000000000000        0.0000000000000000     
   36.925942890751443        0.0000000000000000        0.0000000000000000     
   37.009629015541108        0.0000000000000000        0.0000000000000000     
   37.103086210067886        0.0000000000000000        0.0000000000000000     
   37.206158307014910        0.0000000000000000        0.0000000000000000     
   37.318666607212826        0.0000000000000000        0.0000000000000000     
   37.440408208033844        0.0000000000000000        0.0000000000000000     
   37.571154200548406        0.0000000000000000        0.0000000000000000     
   37.710647749608206        0.0000000000000000        0.0000000000000000     
   37.858602074544713        0.0000000000000000        0.0000000000000000     
   38.014698352253177        0.0000000000000000        0.0000000000000000     
   38.178583569085383        0.0000000000000000        0.0000000000000000     
   38.349868353198360        0.0000000000000000        0.0000000000000000     
   38.528124824775077        0.0000000000000000        0.0000000000000000     
   38.712884507789639        0.0000000000000000        0.0000000000000000     
   38.903636353641119        0.0000000000000000        0.0000000000000000     
   39.099824933886779        0.0000000000000000        0.0000000000000000     
   39.300848866276645        0.0000000000000000        0.0000000000000000     
   39.506059545078962        0.0000000000000000        0.0000000000000000     
   39.714760252973882        0.0000000000000000        0.0000000000000000     
   39.926205737207340        0.0000000000000000        0.0000000000000000     
   40.139602336791036        0.0000000000000000        0.0000000000000000     
   40.354108749812973        0.0000000000000000        0.0000000000000000     
   40.568837529839108        0.0000000000000000        0.0000000000000000     
   40.782857397376347        0.0000000000000000        0.0000000000000000     
   40.995196445869446        0.0000000000000000        0.0000000000000000     
   41.204846311203802        0.0000000000000000        0.0000000000000000     
   41.410767358760225        0.0000000000000000        0.0000000000000000     
   41.611894922437656        0.0000000000000000        0.0000000000000000     
   41.807146605650644        0.0000000000000000        0.0000000000000000     
   41.995430625305445        0.0000000000000000        0.0000000000000000     
   42.175655146658386        0.0000000000000000        0.0000000000000000     
   42.346738520605278        0.0000000000000000        0.0000000000000000     
   42.507620296555537       -0.0000000000000000        0.0000000000000000     
   42.657272845168066       -0.0000000000000000        0.0000000000000000     
   42.794713387746022       -0.0000000000000000        0.0000000000000000     
   42.919016195099964       -0.0000000000000000        0.0000000000000000     
   43.029324690400074       -0.0000000000000000        0.0000000000000000     
   43.124863170106181       -0.0000000000000000        0.0000000000000000     
   43.204947846430784       -0.0000000000000000        0.0000000000000000     
   43.268996915490725       -0.0000000000000000        0.0000000000000000     
   43.316539368311155       -0.0000000000000000        0.0000000000000000     
   43.347222287420628       -0.0000000000000000        0.0000000000000000     
   43.360816409390708       -0.0000000000000000        0.0000000000000000     
   43.357219781982053       -0.0000000000000000        0.0000000000000000     
   43.336459401457802       -0.0000000000000000        0.0000000000000000     
   43.298690778375686       -0.0000000000000000        0.0000000000000000     
   43.244195445593590       -0.0000000000000000        0.0000000000000000     
   43.173376486934572       -0.0000000000000000        0.0000000000000000     
   43.086752225627464       -0.0000000000000000        0.0000000000000000     
   42.984948265245343       -0.0000000000000000        0.0000000000000000     
   42.868688119915845       -0.0000000000000000        0.0000000000000000     
   42.738782703272911       -0.0000000000000000        0.0000000000000000     
   42.596118965958226       -0.0000000000000000        0.0000000000000000     
   42.441647979264978       -0.0000000000000000        0.0000000000000000     
   42.276372758324165       -0.0000000000000000        0.0000000000000000     
   42.101336103287103       -0.0000000000000000        0.0000000000000000     
   41.917608712988205       -0.0000000000000000        0.0000000000000000     
   41.726277794630604       -0.0000000000000000        0.0000000000000000     
   41.528436357323869       -0.0000000000000000        0.0000000000000000     
   41.325173338994496       -0.0000000000000000        0.0000000000000000     
   41.117564677302774       -0.0000000000000000        0.0000000000000000     
   40.906665397487473       -0.0000000000000000        0.0000000000000000     
   40.693502754939651       -0.0000000000000000        0.0000000000000000     
   40.479070438838235       -0.0000000000000000        0.0000000000000000     
   40.264323816056567       -0.0000000000000000        0.0000000000000000     
   40.050176172132396       -0.0000000000000000        0.0000000000000000     
   39.837495888453063       -0.0000000000000000        0.0000000000000000     
   39.627104481775795       -0.0000000000000000        0.0000000000000000     
   39.419775423434331       -0.0000000000000000        0.0000000000000000     
   39.216233650610306       -0.0000000000000000        0.0000000000000000     
   39.017155680330411       -0.0000000000000000        0.0000000000000000     
   38.823170237822531       -0.0000000000000000        0.0000000000000000     
   38.634859313965592       -0.0000000000000000        0.0000000000000000     
   38.452759571272601       -0.0000000000000000        0.0000000000000000     
   38.277364023675155       -0.0000000000000000        0.0000000000000000     
   38.109123921917679       -0.0000000000000000        0.0000000000000000     
   37.948450783268029       -0.0000000000000000        0.0000000000000000     
   37.795718511221949       -0.0000000000000000        0.0000000000000000     
   37.651265557699382       -0.0000000000000000        0.0000000000000000     
   37.515397086730623       -0.0000000000000000        0.0000000000000000     
   37.388387104692342       -0.0000000000000000        0.0000000000000000     
   37.270480527699348       -0.0000000000000000        0.0000000000000000     
   37.161895161744482       -0.0000000000000000       -0.0000000000000000     
   37.062823575592780       -0.0000000000000000       -0.0000000000000000     
   36.973434850280860       -0.0000000000000000       -0.0000000000000000     
   36.893876192373526       -0.0000000000000000       -0.0000000000000000     
   36.824274400918370       -0.0000000000000000       -0.0000000000000000     
   36.764737180359489       -0.0000000000000000       -0.0000000000000000     
   36.715354293568559       -0.0000000000000000       -0.0000000000000000     
   36.676198550675771       -0.0000000000000000       -0.0000000000000000     
   36.647326630584132       -0.0000000000000000       -0.0000000000000000     
   36.628779732979297       -0.0000000000000000       -0.0000000000000000     
   36.620584059352261       -0.0000000000000000       -0.0000000000000000     
   36.622751122083244       -0.0000000000000000       -0.0000000000000000     
   36.635277881037503       -0.0000000000000000       -0.0000000000000000     
   36.658146707446612       -0.0000000000000000       -0.0000000000000000     
   36.691325175133819       -0.0000000000000000       -0.0000000000000000     
   36.734765679438468       -0.0000000000000000       -0.0000000000000000     
   36.788404884544072       -0.0000000000000000       -0.0000000000000000     
   36.852163000366005       -0.0000000000000000       -0.0000000000000000     
   36.925942890751969       -0.0000000000000000       -0.0000000000000000     
   37.009629015541691       -0.0000000000000000       -0.0000000000000000     
   37.103086210068533       -0.0000000000000000       -0.0000000000000000     
   37.206158307015620       -0.0000000000000000       -0.0000000000000000     
   37.318666607213601       -0.0000000000000000       -0.0000000000000000     
   37.440408208034675       -0.0000000000000000       -0.0000000000000000     
   37.571154200549302       -0.0000000000000000       -0.0000000000000000     
   37.710647749609144       -0.0000000000000000       -0.0000000000000000     
   37.858602074545708       -0.0000000000000000       -0.0000000000000000     
   38.014698352254236       -0.0000000000000000       -0.0000000000000000     
   38.178583569086499       -0.0000000000000000       -0.0000000000000000     
   38.349868353199525       -0.0000000000000000       -0.0000000000000000     
   38.528124824776270       -0.0000000000000000       -0.0000000000000000     
   38.712884507790875       -0.0000000000000000       -0.0000000000000000     
   38.903636353642405       -0.0000000000000000       -0.0000000000000000     
   39.099824933888094       -0.0000000000000000       -0.0000000000000000     
   39.300848866277995       -0.0000000000000000       -0.0000000000000000     
   39.506059545080326       -0.0000000000000000       -0.0000000000000000     
   39.714760252975275       -0.0000000000000000       -0.0000000000000000     
   39.926205737208733       -0.0000000000000000       -0.0000000000000000     
   40.139602336792450       -0.0000000000000000       -0.0000000000000000     
   40.354108749814394       -0.0000000000000000       -0.0000000000000000     
   40.568837529840515       -0.0000000000000000       -0.0000000000000000     
   40.782857397377768       -0.0000000000000000       -0.0000000000000000     
   40.995196445870832       -0.0000000000000000       -0.0000000000000000     
   41.204846311205173       -0.0000000000000000       -0.0000000000000000     
   41.410767358761561       -0.0000000000000000       -0.0000000000000000     
   41.611894922438964       -0.0000000000000000       -0.0000000000000000     
   41.807146605651909       -0.0000000000000000       -0.0000000000000000     
   41.995430625306653       -0.0000000000000000       -0.0000000000000000     
   42.175655146659523       -0.0000000000000000       -0.0000000000000000     
   42.346738520606358       -0.0000000000000000       -0.0000000000000000     
   42.507620296556567        0.0000000000000000       -0.0000000000000000     
   42.657272845169018        0.0000000000000000       -0.0000000000000000     
   42.794713387746881        0.0000000000000000       -0.0000000000000000     
   42.919016195100738        0.0000000000000000       -0.0000000000000000     
   43.029324690400756        0.0000000000000000       -0.0000000000000000     
   43.124863170106764        0.0000000000000000       -0.0000000000000000     
   43.204947846431253        0.0000000000000000       -0.0000000000000000     
   43.268996915491080        0.0000000000000000       -0.0000000000000000     
   43.316539368311403        0.0000000000000000       -0.0000000000000000     
   43.347222287420777        0.0000000000000000       -0.0000000000000000     
   43.360816409390743        0.0000000000000000       -0.0000000000000000     
   43.357219781981968        0.0000000000000000       -0.0000000000000000     
   43.336459401457610        0.0000000000000000       -0.0000000000000000     
   43.298690778375381        0.0000000000000000       -0.0000000000000000     
   43.244195445593178        0.0000000000000000       -0.0000000000000000     
   43.173376486934060        0.0000000000000000       -0.0000000000000000     
   43.086752225626839        0.0000000000000000       -0.0000000000000000     
   42.984948265244633        0.0000000000000000       -0.0000000000000000     
   42.868688119915028        0.0000000000000000       -0.0000000000000000     
   42.738782703272008        0.0000000000000000       -0.0000000000000000     
   42.596118965957253        0.0000000000000000       -0.0000000000000000     
   42.441647979263927        0.0000000000000000       -0.0000000000000000     
   42.276372758323042        0.0000000000000000       -0.0000000000000000     
   42.101336103285924        0.0000000000000000       -0.0000000000000000     
   41.917608712986969        0.0000000000000000       -0.0000000000000000     
   41.726277794629326        0.0000000000000000       -0.0000000000000000     
   41.528436357322548        0.0000000000000000       -0.0000000000000000     
   41.325173338993146        0.0000000000000000       -0.0000000000000000     
   41.117564677301395        0.0000000000000000       -0.0000000000000000     
   40.906665397486080        0.0000000000000000       -0.0000000000000000     
   40.693502754938244        0.0000000000000000       -0.0000000000000000     
   40.479070438836828        0.0000000000000000       -0.0000000000000000     
   40.264323816055160        0.0000000000000000       -0.0000000000000000     
   40.050176172130975        0.0000000000000000       -0.0000000000000000     
   39.837495888451670        0.0000000000000000       -0.0000000000000000     
   39.627104481774424        0.0000000000000000       -0.0000000000000000     
   39.419775423432959        0.0000000000000000       -0.0000000000000000     
   39.216233650608977        0.0000000000000000       -0.0000000000000000     
   39.017155680329132        0.0000000000000000       -0.0000000000000000     
   38.823170237821280        0.0000000000000000       -0.0000000000000000     
   38.634859313964370        0.0000000000000000       -0.0000000000000000     
   38.452759571271429        0.0000000000000000       -0.0000000000000000     
   38.277364023674018        0.0000000000000000       -0.0000000000000000     
   38.109123921916591        0.0000000000000000       -0.0000000000000000     
   37.948450783266985        0.0000000000000000       -0.0000000000000000     
   37.795718511220976        0.0000000000000000       -0.0000000000000000     
   37.651265557698466        0.0000000000000000       -0.0000000000000000     
   37.515397086729749        0.0000000000000000       -0.0000000000000000     
   37.388387104691539        0.0000000000000000       -0.0000000000000000     
   37.270480527698595        0.0000000000000000       -0.0000000000000000     
   37.161895161743800        0.0000000000000000        0.0000000000000000     
   39.882521773097153        1.2533587397211783        0.0000000000000000     
   39.839342284030437        1.2513839823148516        3.9326325950617351E-002
   39.800399101857160        1.2483098062731934        7.8536996091151140E-002
   39.765943177117371        1.2441489186165329       0.11760669894087772     
   39.736223378443889        1.2389142729722826       0.15651127005261087     
   39.711486407007861        1.2326189860932983       0.19522766824579751     
   39.691976610692961        1.2252762537712194       0.23373394594302149     
   39.677935695752510        1.2168992665256431       0.27200921308661596     
   39.669602333459345        1.2075011255216019       0.31003359412888137     
   39.667211658848501        1.1970947592346488       0.34778817761071695     
   39.670994658088851        1.1856928414453665       0.38525495786798714     
   39.681177440317981        1.1733077112041479       0.42241676843160181     
   39.697980388951990        1.1599512954636728       0.45925720671530257     
   39.721617186558973        1.1456350351318305       0.49576054961406696     
   39.752293706386389        1.1303698153533241       0.53191165966580245     
   39.790206762586692        1.1141659008852689       0.56769588145997529     
   39.835542710126447        1.0970328774922942       0.60309892800985732     
   39.888475884330212        1.0789796003513838       0.63810675684151974     
   39.949166869050934        1.0600141505273293       0.67270543559456597     
   40.017760581627158        1.0401438006573225       0.70688099697936790     
   40.094384162151030        1.0193749910686791       0.74061928299654478     
   40.179144654208564       0.99771331764740034       0.77390577840049213     
   40.272126464255116       0.97516353287698765       0.80672543348461467     
   40.373388587264337       0.95172956157575983       0.83906247638693698     
   40.482961587361267       0.92741453297500720       0.87090021526715622     
   40.600844323964530       0.90222083089668226       0.90222083089677563     
   40.727000416681641       0.87615016390359957       0.93300516044027260     
   40.861354446008868       0.84920365740129444       0.96323247349524432     
   41.003787891982718       0.82138196976082245       0.99288024181137613     
   41.154134819530491       0.79268543459566221        1.0219239045300239     
   41.312177327596125       0.76311423135086021        1.0503366312857176     
   41.477640789397377       0.73266858633309062        1.0780890860942771     
   41.650188923611580       0.70134900620807750        1.1051491956236799     
   41.829418751062356       0.66915654579540174        1.1314819262042746     
   42.014855508708536       0.63609311167599669        1.1570490747808320     
   42.205947612443076       0.60216180266807307        1.1818090799304908     
   42.402061782291945       0.56736728759483923        1.2057168600500590     
   42.602478467784827       0.53171621993407203        1.2287236868256515     
   42.806387737043465       0.49521768787897313        1.2507771030972767     
   43.012885819719969       0.45788369703005355        1.2718208951669265     
   43.220972520195211       0.41972968136509281        1.2917951304015249     
   43.429549741923921       0.38077503629683629        1.3106362715661666     
   43.637421384587405       0.34104366554145149        1.3282773795871359     
   43.843294890480884       0.30056453122270888        1.3446484162734875     
   44.045784722652371       0.25937219419310414        1.3596766577970625     
   44.243418051789099       0.21750732906197393        1.3732872283187894     
   44.434642908680196       0.17501719601613594        1.3854037609385685     
   44.617839021377264       0.13195604937124736        1.3959491900445253     
   44.791331498497058        8.8385461105715060E-002   1.4048466750927275     
   44.953407440882380        4.4374536632696152E-002   1.4120206508665938     
   45.102335462767698       -1.4657532850643646E-013   1.4173979934295020     
   45.236387982105263       -4.4653873197395028E-002   1.4209092844707354     
   45.353866001312220       -8.9495494448529139E-002   1.4224901498336047     
   45.453125950234146      -0.13442638782003963        1.4220826410893557     
   45.532608010770417      -0.17934181214727909        1.4196366225582642     
   45.590865197621028      -0.22413158285294424        1.4151111207232487     
   45.626592343713114      -0.26868108819661318        1.4084755890990204     
   45.638654044286739      -0.31287248580962351        1.3997110398476218     
   45.626110561889888      -0.35658605611226402        1.3888109942101665     
   45.588240695089652      -0.39970168027408692        1.3757822074354022     
   45.524560672508436      -0.44210040244794746        1.3606451303920264     
   45.434838252202049      -0.48366602975880441        1.3434340792633668     
   45.319101380459919      -0.52428671954897221        1.3241970961863236     
   45.177640984496158      -0.56385650210447580        1.3029954967180379     
   45.011007726110812      -0.60227668872814621        1.2799031137178001     
   44.820002810635579      -0.63945711954811224        1.2550052606447710     
   44.605663208040127      -0.67531721256314725        1.2283974494246401     
   44.369241882014691      -0.70978678460804467        1.2001839080683900     
   44.112183821587443      -0.74280662547990584        1.1704759504701330     
   43.836098815857596      -0.77432881761181915        1.1393902548671528     
   43.542731998379899      -0.80431680461619282        1.1070471082045363     
   43.233933211864091      -0.83274522202010992        1.0735686712841310     
   42.911626209704750      -0.85959951199210749        1.0390773145115779     
   42.577778626405767      -0.88487535040842469        1.0036940668824101     
   42.234373525318446      -0.90857791902163232       0.96753721226511846     
   41.883383182039708      -0.93072105776301606       0.93072105776272684     
   41.526745598307350      -0.95132633248495302       0.89335488963320298     
   41.166344076274612      -0.97042205200867981       0.85554212348981484     
   40.803990026742362      -0.98804226554263841       0.81737964771824334     
   40.441409044950589       -1.0042257677666455       0.77895735252439080     
   40.080230168964079       -1.0190151345208380       0.74035783191023485     
   39.721978141141371       -1.0324558074428789       0.70165624218576461     
   39.368068423121308       -1.0445952413533668       0.66292029828538501     
   39.019804667973105       -1.0554821239229901       0.62421038801942408     
   38.678378327217480       -1.0651656733237242       0.58557978426552082     
   38.344870062186637       -1.0736950162656538       0.54707493578244759     
   38.020252635187298       -1.0811186460926943       0.50873581860353645     
   37.705394972703864       -1.0874839584535823       0.47059633164682718     
   37.401067117211653       -1.0928368604467007       0.43268472209718495     
   37.107945813232526       -1.0972214480051414       0.39502402813342624     
   36.826620504696187       -1.1006797455768635       0.35763252858232031     
   36.557599552588457       -1.1032515017940037       0.32052419100075275     
   36.301316512860055       -1.1049740347466264       0.28370911146216149     
   36.058136343634501       -1.1058821206152041       0.24719394091973385     
   35.828361437248660       -1.1060079197156560       0.21098229442007185     
   35.612237396229354       -1.1053809344217636       0.17507514064358118     
   35.409958492824700       -1.1040279939113771       0.13947117025770514     
   35.221672769208602       -1.1019732612023940       0.10416714239879965     
   35.047486750115560       -1.0992382584766134        6.9158209264313833E-002
   34.887469751673677       -1.0958419072153893        3.4438219317379518E-002
   34.741657779860297       -1.0918005801770216       -2.2580958833694642E-013
   34.610057019602216       -1.0871281627230724       -3.4164378865182102E-002
   34.492646921373030       -1.0818361214437953       -6.8063359603844478E-002
   34.389382896489955       -1.0759335784389799      -0.10170566766303188     
   34.300198635440232       -1.0694273899789608      -0.13510009746951943     
   34.225008065716409       -1.0623222286021590      -0.16825531162170387     
   34.163706967019763       -1.0546206680019310      -0.20117965189216822     
   34.116174262492933       -1.0463232703189997      -0.23388096058809246     
   34.082273005025932       -1.0374286756887765      -0.26636641091120833     
   34.061851077785761       -1.0279336940979638      -0.29864234507536019     
   34.054741628067760       -1.0178333997843345      -0.33071411907388842     
   34.060763253455001       -1.0071212285694315      -0.36258595313827180     
   34.079719959187173      -0.99578907864785460      -0.39426078709182949     
   34.111400905649035      -0.98382741546986507      -0.42574013997649668     
   34.155579965049746      -0.97122538144692261      -0.45702397351594570     
   34.212015106720159      -0.95797091128252521      -0.48811055917410329     
   34.280447631040978      -0.94405085378291154      -0.51899634877400713     
   34.360601272852669      -0.92945110103280681      -0.54967584885752885     
   34.452181196299271      -0.91415672582890084      -0.58014149919110836     
   34.554872904425366      -0.89815212824618396      -0.61038355605529460     
   34.668341088464715      -0.88142119216723602      -0.64038998119501733     
   34.792228443608231      -0.86394745252938210      -0.67014633755089659     
   34.926154480076704      -0.84571427393641985      -0.69963569313644125     
   35.069714360497116      -0.82670504113755749      -0.72883853466761994     
   35.222477796817330      -0.80690336169352261      -0.75773269278486743     
   35.383988042202787      -0.78629328092629613      -0.78629328092670303     
   35.553761015432485      -0.76485950898300370      -0.81449265011125316     
   35.731284597121878      -0.74258765953557571      -0.84230036204823455     
   35.916018138504498      -0.71946449928668710      -0.86968318312949611     
   36.107392224341595      -0.69547820706165264      -0.89660510192018394     
   36.304808731631098      -0.67061864083993228      -0.92302737278355618     
   36.507641224976034      -0.64487761062553239      -0.94890858820877366     
   36.715235727578644      -0.61824915458249818      -0.97420478226138718     
   36.926911903681869      -0.59072981538197056      -0.99886956733046839     
   37.141964683750771      -0.56231891323632288       -1.0228543059959707     
   37.359666357663706      -0.53301881165125164       -1.0461083193793408     
   37.579269153610504      -0.50283517152874069       -1.0685791327674108     
   37.800008311279676      -0.47177718892432285       -1.0902127586168815     
   38.021105647332249      -0.43985781152401143       -1.1109540162618310     
   38.241773599273529      -0.40709392878223749       -1.1307468867737382     
   38.461219720895933      -0.37350653067353284       -1.1495349004825075     
   38.678651588822916      -0.33912083017565714       -1.1672615536846915     
   38.893282065770784      -0.30396634493444885       -1.1838707500740320     
   39.104334852472135      -0.26807693406843131       -1.1993072614673304     
   39.311050247344362      -0.23149078675477042       -1.2135172015067908     
   39.512691021539830      -0.19425036008915256       -1.2264485052414411     
   39.708548307587620      -0.15640226471351390       -1.2380514068674475     
   39.897947392997544      -0.11799709783048523       -1.2482789074793670     
   40.080253306438777       -7.9089224436890163E-002  -1.2570872244848283     
   40.254876083810338       -3.9736508867832934E-002  -1.2644362143885708     
   40.421275604922840        3.9465203491801429E-013  -1.2702897609720085     
   40.578965898674092        4.0056425337264653E-002  -1.2746161214829070     
   40.727518825398356        8.0366455085600724E-002  -1.2773882242941514     
   40.866567059186579       0.12086176423594425       -1.2785839125654859     
   40.995806309914713       0.16147245930503010       -1.2781861297093280     
   41.114996743828975       0.20212753715586232       -1.2761830438727151     
   41.223963582050175       0.24275535002869858       -1.2725681101455932     
   41.322596877429952       0.28328406864533562       -1.2673400707300120     
   41.410850490954310       0.32364213550058674       -1.2605028947934405     
   41.488740308508497       0.36375870094859930       -1.2520656611234098     
   41.556341756535474       0.40356403540067720       -1.2420423879472759     
   41.613786690302426       0.44298991183850983       -1.2304518153365476     
   41.661259740653698       0.48196995386881475       -1.2173171464476518     
   41.698994213962649       0.52043994565452922       -1.2026657544404746     
   41.727267645368798       0.55833810120536842       -1.1865288622555570     
   41.746397107337650       0.59560529164996012       -1.1689412025256833     
   41.756734374306383       0.63218523020018902       -1.1499406647640349     
   41.758661040001073       0.66802461551962200       -1.1295679366340761     
   41.752583677354131       0.70307323509282660       -1.1078661455979069     
   41.738929122300512       0.73728403094056305       -1.0848805065958493     
   41.718139952605164       0.77061313062461334       -1.0606579806686247     
   41.690670221790903       0.80301984693112816       -1.0352469486320870     
   41.656981496684367       0.83446664991514108       -1.0086969030886255     
   41.617539235524760       0.86491911514005393      -0.98105816124068312     
   41.572809532365234       0.89434585196733030      -0.95238160018764784     
   41.523256242953529       0.92271841566005008      -0.92271841565938173     
   41.469338497644443       0.95001120687764373      -0.89211990448456813     