 VARIABLES = "x_1", "x_2", "x_3"
 ZONE F = POINT , I =         201  , J =         101
   2294.3408150908635        0.0000000000000000        0.0000000000000000     
   2294.3408150908635        0.0000000000000000        0.0000000000000000     
   2294.3408150908635        0.0000000000000000        0.0000000000000000     
   2294.3408150908635        0.0000000000000000        0.0000000000000000     
   2294.3408150908635        0.0000000000000000        0.0000000000000000     
   2294.3408150908635        0.0000000000000000        0.0000000000000000     
   2294.3408150908635        0.0000000000000000        0.0000000000000000     
   2294.3408150908635        0.0000000000000000        0.0000000000000000     
   2294.3408150908635        0.0000000000000000        0.0000000000000000     
   2294.3408150908635        0.0000000000000000        0.0000000000000000     
   2294.3408150908635        0.0000000000000000        0.0000000000000000     
   2294.3408150908635        0.0000000000000000        0.0000000000000000     
   2294.3408150908635        0.0000000000000000        0.0000000000000000     
   2294.3408150908635        0.0000000000000000        0.0000000000000000     
   2294.3408150908635        0.0000000000000000        0.0000000000000000     
   2294.3408150908635        0.0000000000000000        0.0000000000000000     
   2294.3408150908635        0.0000000000000000        0.0000000000000000     
   2294.3408150908635        0.0000000000000000        0.0000000000000000     
   2294.3408150908635        0.0000000000000000        0.0000000000000000     
   2294.3408150908635        0.0000000000000000        0.0000000000000000     
   2294.3408150908635        0.0000000000000000        0.0000000000000000     
   2294.3408150908635        0.0000000000000000        0.0000000000000000     
   2294.3408150908635        0.0000000000000000        0.0000000000000000     
   2294.3408150908635        0.0000000000000000        0.0000000000000000     
   2294.3408150908635        0.0000000000000000        0.0000000000000000     
   2294.3408150908635        0.0000000000000000        0.0000000000000000     
   2294.3408150908635        0.0000000000000000        0.0000000000000000     
   2294.3408150908635        0.0000000000000000        0.0000000000000000     
   2294.3408150908635        0.0000000000000000        0.0000000000000000     
   2294.3408150908635        0.0000000000000000        0.0000000000000000     
   2294.3408150908635        0.0000000000000000        0.0000000000000000     
   2294.3408150908635        0.0000000000000000        0.0000000000000000     
   2294.3408150908635        0.0000000000000000        0.0000000000000000     
   2294.3408150908635        0.0000000000000000        0.0000000000000000     
   2294.3408150908635        0.0000000000000000        0.0000000000000000     
   2294.3408150908635        0.0000000000000000        0.0000000000000000     
   2294.3408150908635        0.0000000000000000        0.0000000000000000     
   2294.3408150908635        0.0000000000000000        0.0000000000000000     
   2294.3408150908635        0.0000000000000000        0.0000000000000000     
   2294.3408150908635        0.0000000000000000        0.0000000000000000     
   2294.3408150908635        0.0000000000000000        0.0000000000000000     
   2294.3408150908635        0.0000000000000000        0.0000000000000000     
   2294.3408150908635        0.0000000000000000        0.0000000000000000     
   2294.3408150908635        0.0000000000000000        0.0000000000000000     
   2294.3408150908635        0.0000000000000000        0.0000000000000000     
   2294.3408150908635        0.0000000000000000        0.0000000000000000     
   2294.3408150908635        0.0000000000000000        0.0000000000000000     
   2294.3408150908635        0.0000000000000000        0.0000000000000000     
   2294.3408150908635        0.0000000000000000        0.0000000000000000     
   2294.3408150908635        0.0000000000000000        0.0000000000000000     
   2294.3408150908635       -0.0000000000000000        0.0000000000000000     
   2294.3408150908635       -0.0000000000000000        0.0000000000000000     
   2294.3408150908635       -0.0000000000000000        0.0000000000000000     
   2294.3408150908635       -0.0000000000000000        0.0000000000000000     
   2294.3408150908635       -0.0000000000000000        0.0000000000000000     
   2294.3408150908635       -0.0000000000000000        0.0000000000000000     
   2294.3408150908635       -0.0000000000000000        0.0000000000000000     
   2294.3408150908635       -0.0000000000000000        0.0000000000000000     
   2294.3408150908635       -0.0000000000000000        0.0000000000000000     
   2294.3408150908635       -0.0000000000000000        0.0000000000000000     
   2294.3408150908635       -0.0000000000000000        0.0000000000000000     
   2294.3408150908635       -0.0000000000000000        0.0000000000000000     
   2294.3408150908635       -0.0000000000000000        0.0000000000000000     
   2294.3408150908635       -0.0000000000000000        0.0000000000000000     
   2294.3408150908635       -0.0000000000000000        0.0000000000000000     
   2294.3408150908635       -0.0000000000000000        0.0000000000000000     
   2294.3408150908635       -0.0000000000000000        0.0000000000000000     
   2294.3408150908635       -0.0000000000000000        0.0000000000000000     
   2294.3408150908635       -0.0000000000000000        0.0000000000000000     
   2294.3408150908635       -0.0000000000000000        0.0000000000000000     
   2294.3408150908635       -0.0000000000000000        0.0000000000000000     
   2294.3408150908635       -0.0000000000000000        0.0000000000000000     
   2294.3408150908635       -0.0000000000000000        0.0000000000000000     
   2294.3408150908635       -0.0000000000000000        0.0000000000000000     
   2294.3408150908635       -0.0000000000000000        0.0000000000000000     
   2294.3408150908635       -0.0000000000000000        0.0000000000000000     
   2294.3408150908635       -0.0000000000000000        0.0000000000000000     
   2294.3408150908635       -0.0000000000000000        0.0000000000000000     
   2294.3408150908635       -0.0000000000000000        0.0000000000000000     
   2294.3408150908635       -0.0000000000000000        0.0000000000000000     
   2294.3408150908635       -0.0000000000000000        0.0000000000000000     
   2294.3408150908635       -0.0000000000000000        0.0000000000000000     
   2294.3408150908635       -0.0000000000000000        0.0000000000000000     
   2294.3408150908635       -0.0000000000000000        0.0000000000000000     
   2294.3408150908635       -0.0000000000000000        0.0000000000000000     
   2294.3408150908635       -0.0000000000000000        0.0000000000000000     
   2294.3408150908635       -0.0000000000000000        0.0000000000000000     
   2294.3408150908635       -0.0000000000000000        0.0000000000000000     
   2294.3408150908635       -0.0000000000000000        0.0000000000000000     
   2294.3408150908635       -0.0000000000000000        0.0000000000000000     
   2294.3408150908635       -0.0000000000000000        0.0000000000000000     
   2294.3408150908635       -0.0000000000000000        0.0000000000000000     
   2294.3408150908635       -0.0000000000000000        0.0000000000000000     
   2294.3408150908635       -0.0000000000000000        0.0000000000000000     
   2294.3408150908635       -0.0000000000000000        0.0000000000000000     
   2294.3408150908635       -0.0000000000000000        0.0000000000000000     
   2294.3408150908635       -0.0000000000000000        0.0000000000000000     
   2294.3408150908635       -0.0000000000000000        0.0000000000000000     
   2294.3408150908635       -0.0000000000000000        0.0000000000000000     
   2294.3408150908635       -0.0000000000000000        0.0000000000000000     
   2294.3408150908635       -0.0000000000000000       -0.0000000000000000     
   2294.3408150908635       -0.0000000000000000       -0.0000000000000000     
   2294.3408150908635       -0.0000000000000000       -0.0000000000000000     
   2294.3408150908635       -0.0000000000000000       -0.0000000000000000     
   2294.3408150908635       -0.0000000000000000       -0.0000000000000000     
   2294.3408150908635       -0.0000000000000000       -0.0000000000000000     
   2294.3408150908635       -0.0000000000000000       -0.0000000000000000     
   2294.3408150908635       -0.0000000000000000       -0.0000000000000000     
   2294.3408150908635       -0.0000000000000000       -0.0000000000000000     
   2294.3408150908635       -0.0000000000000000       -0.0000000000000000     
   2294.3408150908635       -0.0000000000000000       -0.0000000000000000     
   2294.3408150908635       -0.0000000000000000       -0.0000000000000000     
   2294.3408150908635       -0.0000000000000000       -0.0000000000000000     
   2294.3408150908635       -0.0000000000000000       -0.0000000000000000     
   2294.3408150908635       -0.0000000000000000       -0.0000000000000000     
   2294.3408150908635       -0.0000000000000000       -0.0000000000000000     
   2294.3408150908635       -0.0000000000000000       -0.0000000000000000     
   2294.3408150908635       -0.0000000000000000       -0.0000000000000000     
   2294.3408150908635       -0.0000000000000000       -0.0000000000000000     
   2294.3408150908635       -0.0000000000000000       -0.0000000000000000     
   2294.3408150908635       -0.0000000000000000       -0.0000000000000000     
   2294.3408150908635       -0.0000000000000000       -0.0000000000000000     
   2294.3408150908635       -0.0000000000000000       -0.0000000000000000     
   2294.3408150908635       -0.0000000000000000       -0.0000000000000000     
   2294.3408150908635       -0.0000000000000000       -0.0000000000000000     
   2294.3408150908635       -0.0000000000000000       -0.0000000000000000     
   2294.3408150908635       -0.0000000000000000       -0.0000000000000000     
   2294.3408150908635       -0.0000000000000000       -0.0000000000000000     
   2294.3408150908635       -0.0000000000000000       -0.0000000000000000     
   2294.3408150908635       -0.0000000000000000       -0.0000000000000000     
   2294.3408150908635       -0.0000000000000000       -0.0000000000000000     
   2294.3408150908635       -0.0000000000000000       -0.0000000000000000     
   2294.3408150908635       -0.0000000000000000       -0.0000000000000000     
   2294.3408150908635       -0.0000000000000000       -0.0000000000000000     
   2294.3408150908635       -0.0000000000000000       -0.0000000000000000     
   2294.3408150908635       -0.0000000000000000       -0.0000000000000000     
   2294.3408150908635       -0.0000000000000000       -0.0000000000000000     
   2294.3408150908635       -0.0000000000000000       -0.0000000000000000     
   2294.3408150908635       -0.0000000000000000       -0.0000000000000000     
   2294.3408150908635       -0.0000000000000000       -0.0000000000000000     
   2294.3408150908635       -0.0000000000000000       -0.0000000000000000     
   2294.3408150908635       -0.0000000000000000       -0.0000000000000000     
   2294.3408150908635       -0.0000000000000000       -0.0000000000000000     
   2294.3408150908635       -0.0000000000000000       -0.0000000000000000     
   2294.3408150908635       -0.0000000000000000       -0.0000000000000000     
   2294.3408150908635       -0.0000000000000000       -0.0000000000000000     
   2294.3408150908635       -0.0000000000000000       -0.0000000000000000     
   2294.3408150908635       -0.0000000000000000       -0.0000000000000000     
   2294.3408150908635       -0.0000000000000000       -0.0000000000000000     
   2294.3408150908635       -0.0000000000000000       -0.0000000000000000     
   2294.3408150908635        0.0000000000000000       -0.0000000000000000     
   2294.3408150908635        0.0000000000000000       -0.0000000000000000     
   2294.3408150908635        0.0000000000000000       -0.0000000000000000     
   2294.3408150908635        0.0000000000000000       -0.0000000000000000     
   2294.3408150908635        0.0000000000000000       -0.0000000000000000     
   2294.3408150908635        0.0000000000000000       -0.0000000000000000     
   2294.3408150908635        0.0000000000000000       -0.0000000000000000     
   2294.3408150908635        0.0000000000000000       -0.0000000000000000     
   2294.3408150908635        0.0000000000000000       -0.0000000000000000     
   2294.3408150908635        0.0000000000000000       -0.0000000000000000     
   2294.3408150908635        0.0000000000000000       -0.0000000000000000     
   2294.3408150908635        0.0000000000000000       -0.0000000000000000     
   2294.3408150908635        0.0000000000000000       -0.0000000000000000     
   2294.3408150908635        0.0000000000000000       -0.0000000000000000     
   2294.3408150908635        0.0000000000000000       -0.0000000000000000     
   2294.3408150908635        0.0000000000000000       -0.0000000000000000     
   2294.3408150908635        0.0000000000000000       -0.0000000000000000     
   2294.3408150908635        0.0000000000000000       -0.0000000000000000     
   2294.3408150908635        0.0000000000000000       -0.0000000000000000     
   2294.3408150908635        0.0000000000000000       -0.0000000000000000     
   2294.3408150908635        0.0000000000000000       -0.0000000000000000     
   2294.3408150908635        0.0000000000000000       -0.0000000000000000     
   2294.3408150908635        0.0000000000000000       -0.0000000000000000     
   2294.3408150908635        0.0000000000000000       -0.0000000000000000     
   2294.3408150908635        0.0000000000000000       -0.0000000000000000     
   2294.3408150908635        0.0000000000000000       -0.0000000000000000     
   2294.3408150908635        0.0000000000000000       -0.0000000000000000     
   2294.3408150908635        0.0000000000000000       -0.0000000000000000     
   2294.3408150908635        0.0000000000000000       -0.0000000000000000     
   2294.3408150908635        0.0000000000000000       -0.0000000000000000     
   2294.3408150908635        0.0000000000000000       -0.0000000000000000     
   2294.3408150908635        0.0000000000000000       -0.0000000000000000     
   2294.3408150908635        0.0000000000000000       -0.0000000000000000     
   2294.3408150908635        0.0000000000000000       -0.0000000000000000     
   2294.3408150908635        0.0000000000000000       -0.0000000000000000     
   2294.3408150908635        0.0000000000000000       -0.0000000000000000     
   2294.3408150908635        0.0000000000000000       -0.0000000000000000     
   2294.3408150908635        0.0000000000000000       -0.0000000000000000     
   2294.3408150908635        0.0000000000000000       -0.0000000000000000     
   2294.3408150908635        0.0000000000000000       -0.0000000000000000     
   2294.3408150908635        0.0000000000000000       -0.0000000000000000     
   2294.3408150908635        0.0000000000000000       -0.0000000000000000     
   2294.3408150908635        0.0000000000000000       -0.0000000000000000     
   2294.3408150908635        0.0000000000000000       -0.0000000000000000     
   2294.3408150908635        0.0000000000000000       -0.0000000000000000     
   2294.3408150908635        0.0000000000000000       -0.0000000000000000     
   2294.3408150908635        0.0000000000000000       -0.0000000000000000     
   2294.3408150908635        0.0000000000000000       -0.0000000000000000     
   2294.3408150908635        0.0000000000000000       -0.0000000000000000     
   2294.3408150908635        0.0000000000000000       -0.0000000000000000     
   2294.3408150908635        0.0000000000000000        0.0000000000000000     
   2266.5553548123576        71.229371582319999        0.0000000000000000     
   2265.0491269251852        71.146912425976495        2.2358817980618908     
   2263.5757994320275        70.995365158080361        4.4666497754722805     
   2262.1358593759101        70.774981261496578        6.6902054804040416     
   2260.7297568548106        70.486073536117388        8.9044618589249769     
   2259.3579081983667        70.129015708006634        11.107344903423989     
   2258.0206991629921        69.704242001970641        13.296795299788730     
   2256.7184881299531        69.212246675780975        15.470770072848275     
   2255.4516092911194        68.653583514282701        17.627244229330206     
   2254.2203758072474        68.028865281657957        19.764212397320456     
   2253.0250829239003        67.338763130181022        21.879690460959591     
   2251.8660110303649        66.584005963893574        23.971717188863384     
   2250.7434286472430        65.765379755749350        26.038355854521704     
   2249.6575953287911        64.883726816923073        28.077695846710256     
   2248.6087644664613        63.939945017146890        30.087854267746870     
   2247.5971859806214        62.934986955129375        32.066977517240765     
   2246.6231088879022        61.869859078321454        34.013242858820981     
   2245.6867837322229        60.745620751522601        35.924859967190848     
   2244.7884648681434        59.563383274062311        37.800072452741396     
   2243.9284125858626        58.324308845547819        39.637159360868189     
   2243.1068950678714        57.029609480432306        41.434436643075394     
   2242.3241901680276        55.680545871929795        43.190258596917921     
   2241.5805870045988        54.278426206077114        44.903019271829002     
   2240.8763873596208        52.824604927018711        46.571153837904291     
   2240.2119068777824        51.320481454863092        48.193139914768672     
   2239.5874760589209        49.767498857727645        49.767498857732797     
   2239.0034410391031        48.167142479848003        51.292796998557314     
   2238.4601641561903        46.520938527876183        52.767646838279013     
   2237.9580242967281        44.830452617727630        54.190708189715984     
   2237.4974170219270        43.097288284553770        55.560689267455167     
   2237.0787544714635        41.323085458617875        56.876347723334327     
   2236.7024650448034        39.509518910029705        58.136491625660831     
   2236.3689928606514        37.658296665449342        59.339980380655071     
   2236.0787969961193        35.771158400001887        60.485725594870921     
   2235.8323505081139        33.849873807748338        61.572691877620713     
   2235.6301392403711        31.896240954134385        62.599897582718953     
   2235.4726604204425        29.912084613886641        63.566415489152590     
   2235.3604210518138        27.899254597844241        64.471373420583546     
   2235.2939361071999        25.859624072202816        65.313954803890582     
   2235.2737265298379        23.795087873606210        66.093399167254447     
   2235.3003170503753        21.707560823451075        66.809002578584682     
   2235.3742338277334        19.598976044669925        67.460118025374427     
   2235.4960019229648        17.471283284129740        68.046155737344321     
   2235.6661426158016        15.326447243628454        68.566583453500627     
   2235.8851705742377        13.166445922290759        69.020926635481331     
   2236.1535908879887        10.993268972959026        69.408768629292069     
   2236.4718959772545        8.8089160749476214        69.729750777743547     
   2236.8405623886515        6.6153953252811402        69.983572486088377     
   2237.2600474906299        4.4147216502703950        70.169991243517060     
   2237.7307860810497        2.2089152389983187        70.288822603307352     
   2238.2531869199656       -7.2739624852508738E-012   70.339940124530045     
   2238.8276292009236       -2.2099979579428384        70.323275278291760     
   2239.4544589743527       -4.4190518200824220        70.238817321544147     
   2240.1339855368301       -6.6251355349757572        70.086613141506703     
   2240.8664778001585       -8.8262252584721015        69.866767073736625     
   2241.6521606543479       -11.020300772870579        69.579440696834894     
   2242.4912113386486       -13.205346881813098        69.224852606701120     
   2243.3837558348764       -15.379354781845361        68.803278173143013     
   2244.3298652972562       -17.540323411870681        68.315049281508252     
   2245.3295525330332       -19.686260782008713        67.760554061840963     
   2246.3827685480301       -21.815185283642993        67.140236607867493     
   2247.4893991712815       -23.925126982695708        66.454596687895375     
   2248.6492617727636       -26.014128898402621        65.704189449459804     
   2249.8621020881237       -28.080248270072008        64.889625119280623     
   2251.1275911641574       -30.121557814499194        64.011568699797451     
   2252.4453224386102       -32.136146976867799        63.070739663237362     
   2253.8148089676788       -34.122123178100146        62.067911643836858     
   2255.2354808143568       -36.077613061720285        61.003912128492864     
   2256.7066826105452       -38.000763743361823        59.879622145758077     
   2258.2276713055398       -39.889744066088170        58.695975952725497     
   2259.7976141132258       -41.742745864693873        57.453960718970009     
   2261.4155866699898       -43.557985242121390        56.154616206334460     
   2263.0805714149819       -45.333703861057259        54.799034442963979     
   2264.7914562039823       -47.068170253664526        53.388359389612454     
   2266.5470331677261       -48.759681152264939        51.923786595869529     
   2268.3459978250344       -50.406562843603730        50.406562843588070     
   2270.1869484606750       -52.007172549113285        48.837985774437620     
   2272.0683857772792       -53.559899833338982        47.219403498166542     
   2273.9887128301084       -55.063168042402943        45.552214177833143     
   2275.9462352528444       -56.515435774059995        43.837865587963869     
   2277.9391617818646       -57.915198380544318        42.077854641318012     
   2279.9656050858175       -59.260989505021428        40.273726879689086     
   2282.0235829064718       -60.551382652043799        38.427075923952550     
   2284.1110195160559       -61.784992791967888        36.539542878383692     
   2286.2257474953567       -62.960477998822938        34.612815684119212     
   2288.3655098359691       -64.076541120634587        32.648628416525405     
   2290.5279623690485       -65.131931480698967        30.648760521166579     
   2292.7106765218841       -66.125446607780603        28.615035983041523     
   2294.9111424024863       -67.055933992673175        26.549322423776385     
   2297.1267722112125       -67.922292868019113        24.453530121530648     
   2299.3549039772256       -68.723476007738171        22.329610948489549     
   2301.5928056162925       -69.458491541867616        20.179557220985011     
   2303.8376793050934       -70.126404782075156        18.005400457505328     
   2306.0866661658374       -70.726340052572652        15.809210040125036     
   2308.3368512535494       -71.257482520640195        13.593091775208940     
   2310.5852688369250       -71.719080020469278        11.359186349618204     
   2312.8289079621750       -72.110444863558214        9.1096676790711104     
   2315.0647182877588       -72.430955628445147        6.8467411457850655     
   2317.2896161763670       -72.680058922149399        4.5726417230478944     
   2319.5004910290077       -72.857271105317707        2.2896319849333402     
   2321.6942118445068       -72.962179972738724       -1.5090264763496485E-011
   2323.8676339862191       -72.994446380605481       -2.2939428916592992     
   2326.0176061362999       -72.953805811673803       -4.5898644175442840     
   2328.1409774164003       -72.840069869288754       -6.8854138277068859     
   2330.2346046523016       -72.653127691135950       -9.1782244634028043     
   2332.2953597586693       -72.392947273522893       -11.465916437376729     
   2334.3201372188673       -72.059576697009575       -13.746099422522262     
   2336.3058616336316       -71.653145244291053       -16.016375544991636     
   2338.2494953113523       -71.173864401388130       -18.274342377023494     
   2340.1480458717988       -70.622028733427939       -20.517596023971183     
   2341.9985738343357       -69.998016626594449       -22.743734299236610     
   2343.7982001610076       -69.302290888197788       -24.950359980055389     
   2345.5441137244052       -68.535399197254193       -27.135084136344172     
   2347.2335786698745       -67.697974398478507       -29.295529524117377     
   2348.8639416414794       -66.790734633170359       -31.429334034315282     
   2350.4326388411441       -65.814483301118315       -33.534154187265607     
   2351.9372028906355       -64.770108848350333       -35.607668662432935     
   2353.3752694663985       -63.658584376318338       -37.647581852599586     
   2354.7445836779016       -62.480967068916783       -39.651627431176401     
   2356.0430061609036       -61.238397434590198       -41.617571920964167     
   2357.2685188580394       -59.932098361680247       -43.543218252383866     
   2358.4192304603098       -58.563373986089523       -45.426409298969055     
   2359.4933814843976       -57.133608371289640       -47.265031377770413     
   2360.4893489622941       -55.644264001669455       -49.057017702262677     
   2361.4056507213841       -54.096880091193853       -50.800351775371048     
   2362.2409492350748       -52.493070710320758       -52.493070710347922     
   2362.9940550259980       -50.834522735089507       -54.133268467430227     
   2363.6639296060157       -49.122993623245641       -55.719098994494772     
   2364.2496879395012       -47.360309023190815       -57.248779260299123     
   2364.7506004187503       -45.548360222438859       -58.720592169348542     
   2365.1660943428315       -43.689101443108449       -60.132889347959541     
   2365.4957548936973       -41.784546992783397       -61.484093791696317     
   2365.7393256059499       -39.836768279818067       -62.772702365028238     
   2365.8967083292478       -37.847890702845298       -63.997288144795704     
   2365.9679626849170       -35.820090424860808       -65.156502599861767     
   2365.9533050209529       -33.755591042796524       -66.249077600173806     
   2365.8531068720895       -31.656660163959966       -67.273827249340471     
   2365.6678929341460       -29.525605901096007       -68.229649535751889     
   2365.3983385642573       -27.364773298127616       -69.115527798214003     
   2365.0452668209282       -25.176540698840828       -69.930532003032724     
   2364.6096450600458       -22.963316070907435       -70.673819830453311     
   2364.0925811051061       -20.727533297674444       -71.344637569336143     
   2363.4953190118304       -18.471648450105356       -71.942320819911686     
   2362.8192344491690       -16.198136051123942       -72.466295005409634     
   2362.0658297202995       -13.909485344402629       -72.916075694279698     
   2361.2367284487291       -11.608196579343572       -73.291268735618445     
   2360.3336699558440       -9.2967773236402422       -73.591570211269939     
   2359.3585033574045       -6.9777388143709915       -73.816766208881063     
   2358.3131814073417       -4.6535923580811867       -73.966732420952169     
   2357.1997541179780       -2.3268457897559767       -74.041433575628659     
   2356.0203621862929        2.3002941305787433E-011  -74.040922705623842     
   2354.7772302562225        2.3244544610914115       -73.965340262244581     
   2353.4726600471217        4.6440406949346320       -73.814913082003130     
   2352.1090233784994        6.9562986739035306       -73.589953213743840     
   2350.6887551209807        9.2587883619273050       -73.290856614586616     
   2349.2143461030182        11.549092730994619       -72.918101723288572     
   2347.6883360024440        13.824820668450217       -72.472247919856670     
   2346.1133062512267        16.083609770924529       -71.953933880400811     
   2344.4918729810456        18.323129021489219       -71.363875836306207     
   2342.8266800363499        20.541081347388332       -70.702865746822894     
   2341.1203920805474        22.735206056443985       -69.971769394125928     
   2339.3756878198378        24.903281150954825       -69.171524409791331     
   2337.5952533679738        27.043125518605468       -68.303138241465660     
   2335.7817757739540        29.152601000567753       -67.367686068285607     
   2333.9379367332663        31.229614337603476       -66.366308673330067     
   2332.0664065019232        33.272118995569883       -65.300210281067763     
   2330.1698380310422        35.278116872271838       -64.170656367402529     
   2328.2508613382706        37.245659888109458       -62.978971449519285     
   2326.3120781308421        39.172851463419036       -61.726536862304982     
   2324.3560566935425        41.057847885812571       -60.414788527661109     
   2322.3853270533723        42.898859571170966       -59.045214722547840     
   2320.4023764311492        44.694152222250473       -57.619353851102474     
   2318.4096449888839        46.442047889110988       -56.138792225673448     
   2316.4095218802190        48.140925935775648       -54.605161861092988     
   2314.4043416098539        49.789223917679003       -53.020138286002123     
   2312.3963807064551        51.385438374563414       -51.385438374526196     
   2310.3878547121935        52.928125543532758       -49.702818201096370     