 VARIABLES = "x_1", "x_2", "x_3"
 ZONE F = POINT , I =         201  , J =         101
   1089.9648772983855        0.0000000000000000        0.0000000000000000     
   1089.8396304950920        0.0000000000000000        0.0000000000000000     
   1089.7720071912261        0.0000000000000000        0.0000000000000000     
   1089.7622420631226        0.0000000000000000        0.0000000000000000     
   1089.8103689877435        0.0000000000000000        0.0000000000000000     
   1089.9162209763444        0.0000000000000000        0.0000000000000000     
   1090.0794305018558        0.0000000000000000        0.0000000000000000     
   1090.2994302229320        0.0000000000000000        0.0000000000000000     
   1090.5754541111021        0.0000000000000000        0.0000000000000000     
   1090.9065389908551        0.0000000000000000        0.0000000000000000     
   1091.2915265057168        0.0000000000000000        0.0000000000000000     
   1091.7290655263778        0.0000000000000000        0.0000000000000000     
   1092.2176150196681        0.0000000000000000        0.0000000000000000     
   1092.7554473995526        0.0000000000000000        0.0000000000000000     
   1093.3406523833307        0.0000000000000000        0.0000000000000000     
   1093.9711413777554        0.0000000000000000        0.0000000000000000     
   1094.6446524208352        0.0000000000000000        0.0000000000000000     
   1095.3587557055514        0.0000000000000000        0.0000000000000000     
   1096.1108597115915        0.0000000000000000        0.0000000000000000     
   1096.8982179703960        0.0000000000000000        0.0000000000000000     
   1097.7179364873286        0.0000000000000000        0.0000000000000000     
   1098.5669818425270        0.0000000000000000        0.0000000000000000     
   1099.4421899889880        0.0000000000000000        0.0000000000000000     
   1100.3402757626479        0.0000000000000000        0.0000000000000000     
   1101.2578431146192        0.0000000000000000        0.0000000000000000     
   1102.1913960703514        0.0000000000000000        0.0000000000000000     
   1103.1373504143166        0.0000000000000000        0.0000000000000000     
   1104.0920460919065        0.0000000000000000        0.0000000000000000     
   1105.0517603126000        0.0000000000000000        0.0000000000000000     
   1106.0127213302342        0.0000000000000000        0.0000000000000000     
   1106.9711228673914        0.0000000000000000        0.0000000000000000     
   1107.9231391416879        0.0000000000000000        0.0000000000000000     
   1108.8649404421874        0.0000000000000000        0.0000000000000000     
   1109.7927091944032        0.0000000000000000        0.0000000000000000     
   1110.7026564425801        0.0000000000000000        0.0000000000000000     
   1111.5910386683072        0.0000000000000000        0.0000000000000000     
   1112.4541748552028        0.0000000000000000        0.0000000000000000     
   1113.2884637005968        0.0000000000000000        0.0000000000000000     
   1114.0904008670532        0.0000000000000000        0.0000000000000000     
   1114.8565961593808        0.0000000000000000        0.0000000000000000     
   1115.5837905066799        0.0000000000000000        0.0000000000000000     
   1116.2688726241552        0.0000000000000000        0.0000000000000000     
   1116.9088952260529        0.0000000000000000        0.0000000000000000     
   1117.5010906592829        0.0000000000000000        0.0000000000000000     
   1118.0428858272194        0.0000000000000000        0.0000000000000000     
   1118.5319162748913        0.0000000000000000        0.0000000000000000     
   1118.9660393103632        0.0000000000000000        0.0000000000000000     
   1119.3433460425604        0.0000000000000000        0.0000000000000000     
   1119.6621722231071        0.0000000000000000        0.0000000000000000     
   1119.9211077888576        0.0000000000000000        0.0000000000000000     
   1120.1190050125865       -0.0000000000000000        0.0000000000000000     
   1120.2549851816525       -0.0000000000000000        0.0000000000000000     
   1120.3284437381342       -0.0000000000000000        0.0000000000000000     
   1120.3390538287877       -0.0000000000000000        0.0000000000000000     
   1120.2867682289161       -0.0000000000000000        0.0000000000000000     
   1120.1718196206014       -0.0000000000000000        0.0000000000000000     
   1119.9947192224688       -0.0000000000000000        0.0000000000000000     
   1119.7562537849176       -0.0000000000000000        0.0000000000000000     
   1119.4574809812652       -0.0000000000000000        0.0000000000000000     
   1119.0997232412392       -0.0000000000000000        0.0000000000000000     
   1118.6845600884183       -0.0000000000000000        0.0000000000000000     
   1118.2138190573444       -0.0000000000000000        0.0000000000000000     
   1117.6895652788280       -0.0000000000000000        0.0000000000000000     
   1117.1140898333238       -0.0000000000000000        0.0000000000000000     
   1116.4898969819212       -0.0000000000000000        0.0000000000000000     
   1115.8196903924377       -0.0000000000000000        0.0000000000000000     
   1115.1063584841875       -0.0000000000000000        0.0000000000000000     
   1114.3529590192065       -0.0000000000000000        0.0000000000000000     
   1113.5627030700723       -0.0000000000000000        0.0000000000000000     
   1112.7389384949754       -0.0000000000000000        0.0000000000000000     
   1111.8851330494697       -0.0000000000000000        0.0000000000000000     
   1111.0048572614842       -0.0000000000000000        0.0000000000000000     
   1110.1017671918237       -0.0000000000000000        0.0000000000000000     
   1109.1795871966933       -0.0000000000000000        0.0000000000000000     
   1108.2420928019480       -0.0000000000000000        0.0000000000000000     
   1107.2930937909553       -0.0000000000000000        0.0000000000000000     
   1106.3364175993656       -0.0000000000000000        0.0000000000000000     
   1105.3758931009297       -0.0000000000000000        0.0000000000000000     
   1104.4153348589427       -0.0000000000000000        0.0000000000000000     
   1103.4585279081605       -0.0000000000000000        0.0000000000000000     
   1102.5092131222270       -0.0000000000000000        0.0000000000000000     
   1101.5710732120435       -0.0000000000000000        0.0000000000000000     
   1100.6477193911155       -0.0000000000000000        0.0000000000000000     
   1099.7426787349750       -0.0000000000000000        0.0000000000000000     
   1098.8593822533217       -0.0000000000000000        0.0000000000000000     
   1098.0011536856925       -0.0000000000000000        0.0000000000000000     
   1097.1711990243116       -0.0000000000000000        0.0000000000000000     
   1096.3725967613514       -0.0000000000000000        0.0000000000000000     
   1095.6082888521585       -0.0000000000000000        0.0000000000000000     
   1094.8810723811655       -0.0000000000000000        0.0000000000000000     
   1094.1935919131133       -0.0000000000000000        0.0000000000000000     
   1093.5483325089517       -0.0000000000000000        0.0000000000000000     
   1092.9476133832923       -0.0000000000000000        0.0000000000000000     
   1092.3935821785271       -0.0000000000000000        0.0000000000000000     
   1091.8882098297165       -0.0000000000000000        0.0000000000000000     
   1091.4332859939800       -0.0000000000000000        0.0000000000000000     
   1091.0304150184083       -0.0000000000000000        0.0000000000000000     
   1090.6810124213644       -0.0000000000000000        0.0000000000000000     
   1090.3863018634236       -0.0000000000000000        0.0000000000000000     
   1090.1473125860518       -0.0000000000000000        0.0000000000000000     
   1089.9648772983846       -0.0000000000000000       -0.0000000000000000     
   1089.8396304950916       -0.0000000000000000       -0.0000000000000000     
   1089.7720071912258       -0.0000000000000000       -0.0000000000000000     
   1089.7622420631226       -0.0000000000000000       -0.0000000000000000     
   1089.8103689877439       -0.0000000000000000       -0.0000000000000000     
   1089.9162209763451       -0.0000000000000000       -0.0000000000000000     
   1090.0794305018571       -0.0000000000000000       -0.0000000000000000     
   1090.2994302229336       -0.0000000000000000       -0.0000000000000000     
   1090.5754541111041       -0.0000000000000000       -0.0000000000000000     
   1090.9065389908576       -0.0000000000000000       -0.0000000000000000     
   1091.2915265057195       -0.0000000000000000       -0.0000000000000000     
   1091.7290655263810       -0.0000000000000000       -0.0000000000000000     
   1092.2176150196717       -0.0000000000000000       -0.0000000000000000     
   1092.7554473995563       -0.0000000000000000       -0.0000000000000000     
   1093.3406523833348       -0.0000000000000000       -0.0000000000000000     
   1093.9711413777597       -0.0000000000000000       -0.0000000000000000     
   1094.6446524208397       -0.0000000000000000       -0.0000000000000000     
   1095.3587557055564       -0.0000000000000000       -0.0000000000000000     
   1096.1108597115963       -0.0000000000000000       -0.0000000000000000     
   1096.8982179704012       -0.0000000000000000       -0.0000000000000000     
   1097.7179364873343       -0.0000000000000000       -0.0000000000000000     
   1098.5669818425331       -0.0000000000000000       -0.0000000000000000     
   1099.4421899889940       -0.0000000000000000       -0.0000000000000000     
   1100.3402757626541       -0.0000000000000000       -0.0000000000000000     
   1101.2578431146253       -0.0000000000000000       -0.0000000000000000     
   1102.1913960703575       -0.0000000000000000       -0.0000000000000000     
   1103.1373504143232       -0.0000000000000000       -0.0000000000000000     
   1104.0920460919126       -0.0000000000000000       -0.0000000000000000     
   1105.0517603126061       -0.0000000000000000       -0.0000000000000000     
   1106.0127213302410       -0.0000000000000000       -0.0000000000000000     
   1106.9711228673980       -0.0000000000000000       -0.0000000000000000     
   1107.9231391416943       -0.0000000000000000       -0.0000000000000000     
   1108.8649404421938       -0.0000000000000000       -0.0000000000000000     
   1109.7927091944098       -0.0000000000000000       -0.0000000000000000     
   1110.7026564425860       -0.0000000000000000       -0.0000000000000000     
   1111.5910386683129       -0.0000000000000000       -0.0000000000000000     
   1112.4541748552083       -0.0000000000000000       -0.0000000000000000     
   1113.2884637006023       -0.0000000000000000       -0.0000000000000000     
   1114.0904008670584       -0.0000000000000000       -0.0000000000000000     
   1114.8565961593858       -0.0000000000000000       -0.0000000000000000     
   1115.5837905066842       -0.0000000000000000       -0.0000000000000000     
   1116.2688726241595       -0.0000000000000000       -0.0000000000000000     
   1116.9088952260565       -0.0000000000000000       -0.0000000000000000     
   1117.5010906592868       -0.0000000000000000       -0.0000000000000000     
   1118.0428858272228       -0.0000000000000000       -0.0000000000000000     
   1118.5319162748942       -0.0000000000000000       -0.0000000000000000     
   1118.9660393103659       -0.0000000000000000       -0.0000000000000000     
   1119.3433460425626       -0.0000000000000000       -0.0000000000000000     
   1119.6621722231089       -0.0000000000000000       -0.0000000000000000     
   1119.9211077888590       -0.0000000000000000       -0.0000000000000000     
   1120.1190050125876        0.0000000000000000       -0.0000000000000000     
   1120.2549851816536        0.0000000000000000       -0.0000000000000000     
   1120.3284437381344        0.0000000000000000       -0.0000000000000000     
   1120.3390538287877        0.0000000000000000       -0.0000000000000000     
   1120.2867682289154        0.0000000000000000       -0.0000000000000000     
   1120.1718196206004        0.0000000000000000       -0.0000000000000000     
   1119.9947192224677        0.0000000000000000       -0.0000000000000000     
   1119.7562537849158        0.0000000000000000       -0.0000000000000000     
   1119.4574809812632        0.0000000000000000       -0.0000000000000000     
   1119.0997232412365        0.0000000000000000       -0.0000000000000000     
   1118.6845600884155        0.0000000000000000       -0.0000000000000000     
   1118.2138190573407        0.0000000000000000       -0.0000000000000000     
   1117.6895652788244        0.0000000000000000       -0.0000000000000000     
   1117.1140898333199        0.0000000000000000       -0.0000000000000000     
   1116.4898969819167        0.0000000000000000       -0.0000000000000000     
   1115.8196903924331        0.0000000000000000       -0.0000000000000000     
   1115.1063584841827        0.0000000000000000       -0.0000000000000000     
   1114.3529590192013        0.0000000000000000       -0.0000000000000000     
   1113.5627030700668        0.0000000000000000       -0.0000000000000000     
   1112.7389384949697        0.0000000000000000       -0.0000000000000000     
   1111.8851330494635        0.0000000000000000       -0.0000000000000000     
   1111.0048572614780        0.0000000000000000       -0.0000000000000000     
   1110.1017671918180        0.0000000000000000       -0.0000000000000000     
   1109.1795871966874        0.0000000000000000       -0.0000000000000000     
   1108.2420928019419        0.0000000000000000       -0.0000000000000000     
   1107.2930937909491        0.0000000000000000       -0.0000000000000000     
   1106.3364175993593        0.0000000000000000       -0.0000000000000000     
   1105.3758931009229        0.0000000000000000       -0.0000000000000000     
   1104.4153348589366        0.0000000000000000       -0.0000000000000000     
   1103.4585279081543        0.0000000000000000       -0.0000000000000000     
   1102.5092131222209        0.0000000000000000       -0.0000000000000000     
   1101.5710732120372        0.0000000000000000       -0.0000000000000000     
   1100.6477193911091        0.0000000000000000       -0.0000000000000000     
   1099.7426787349691        0.0000000000000000       -0.0000000000000000     
   1098.8593822533162        0.0000000000000000       -0.0000000000000000     
   1098.0011536856866        0.0000000000000000       -0.0000000000000000     
   1097.1711990243061        0.0000000000000000       -0.0000000000000000     
   1096.3725967613464        0.0000000000000000       -0.0000000000000000     
   1095.6082888521537        0.0000000000000000       -0.0000000000000000     
   1094.8810723811609        0.0000000000000000       -0.0000000000000000     
   1094.1935919131090        0.0000000000000000       -0.0000000000000000     
   1093.5483325089476        0.0000000000000000       -0.0000000000000000     
   1092.9476133832886        0.0000000000000000       -0.0000000000000000     
   1092.3935821785237        0.0000000000000000       -0.0000000000000000     
   1091.8882098297133        0.0000000000000000       -0.0000000000000000     
   1091.4332859939771        0.0000000000000000       -0.0000000000000000     
   1091.0304150184058        0.0000000000000000       -0.0000000000000000     
   1090.6810124213625        0.0000000000000000       -0.0000000000000000     
   1090.3863018634217        0.0000000000000000       -0.0000000000000000     
   1090.1473125860502        0.0000000000000000       -0.0000000000000000     
   1089.9648772983835        0.0000000000000000        0.0000000000000000     
   1070.6340539875046        33.646030615685113        0.0000000000000000     
   1070.6246496277845        33.629132932566066        1.0568380783461124     
   1070.7192848179020        33.582311061339070        2.1128199260328486     
   1070.9158658969247        33.505525332331146        3.1672046421879658     
   1071.2118829604228        33.398737432534389        4.2192417407371172     
   1071.6044268154521        33.261911894621456        5.2681692995540077     
   1072.0902072211913        33.095017809088098        6.3132122896891385     
   1072.6655724362613        32.898030742681243        7.3535811061543255     
   1073.3265300973660        32.670934844527466        8.3884703204925906     
   1074.0687694537557        32.413725119594744        9.4170576739688769     
   1074.8876849781300        32.126409847313603        10.438503328643721     
   1075.7784013668174        31.809013121371809        11.451949391808274     
   1076.7357999305136        31.461577484911576        12.456519727237165     
   1077.7545463615763        31.084166633634382        13.451320064432673     
   1078.8291198450913        30.676868157702575        14.435438414473404     
   1079.9538434588903        30.239796291866824        15.407945798234586     
   1081.1229157828507        29.773094642002309        16.367897289617691     
   1082.3304436105418        29.276938855259740        17.314333373025118     
   1083.5704756272553        28.751539200391999        18.246281610667310     
   1084.8370368882643        28.197143024561168        19.162758611429989     
   1086.1241639005962        27.614037053119510        20.062772289008901     
   1087.4259400814674        27.002549499541971        20.945324392899568     
   1088.7365313377152        26.363051953908315        21.809413291685232     
   1090.0502214839514        25.695961020119476        22.654036983979285     
   1091.3614471936892        25.001739674403009        23.478196308443838     
   1092.6648321582638        24.280898320617737        24.280898320620249     
   1093.9552201137726        23.533995521391123        25.061159800972298     
   1095.2277063873132        22.761638388180796        25.818010855658706     
   1096.4776676110944        21.964482617891228        26.550498569214870     
   1097.7007892570350        21.143232168624682        27.257690666622448     
   1098.8930906555811        20.298638572415335        27.938679141254909     
   1100.0509471807486        19.431499888280079        28.592583804968811     
   1101.1711093087902        18.542659304504252        29.218555717204648     
   1102.2507182900215        17.633003404636572        29.815780451387788     
   1103.2873182118058        16.703460117066221        30.383481159177126     
   1104.2788642746207        15.754996373160861        30.920921396166577     
   1105.2237271517745        14.788615503631915        31.427407676453576     
   1106.1206933555134        13.805354406941143        31.902291727972361     
   1106.9689615868508        12.806280527063466        32.344972425553024     
   1107.7681351022375        11.792488680686308        32.754897384197342     
   1108.5182101858043        10.765097775883854        33.131564200929006     
   1109.2195608701941        9.7252474654092129        33.474521339644205     
   1109.8729201006583        8.6740947779745152        33.783368659512824     
   1110.4793575850942        7.6128107702399435        34.057757593519661     
   1111.0402546160401        6.5425772407324727        34.297390989549505     
   1111.5572761885294        5.4645835446114051        34.502022631879385     
   1112.0323407695605        4.3800235451589327        34.671456465930419     
   1112.4675881003086        3.2900927341851673        34.805545553547873     
   1112.8653454309288        2.1959855492972773        34.904190789841081     
   1113.2280925998236        1.0988929113011348        34.967339415659765     
   1113.5584263748033       -3.6188855961070280E-012   34.994983362072318     
   1113.8590244729087       -1.0995157185905944        34.987157464719736     
   1114.1326096693692       -2.1984862058000840        34.943937586648779     
   1114.3819143946698       -3.2957543023129396        34.865438688192597     
   1114.6096462027922       -4.3901749212248582        34.751812881702321     
   1114.8184544739383       -5.4806159898881441        34.603247507483033     
   1115.0108986921932       -6.5659591528312218        34.419963265209944     
   1115.1894186132999       -7.6451002523333722        34.202212432460925     
   1115.3563066105930       -8.7169496070615420        33.950277198869671     
   1115.5136824587762       -9.7804321125191471        33.664468140856194     
   1115.6634707860314       -10.834487189874967        33.345122858000252     
   1115.8073813953681       -11.878068612006329        32.992604787968041     
   1115.9468926263842       -12.910144237286696        32.607302212553542     
   1116.0832378989003       -13.929695682762082        32.189627462926104     
   1116.2173955503788       -14.935717968892614        31.740016327653681     
   1116.3500820496185       -15.927219167986145        31.258927662562225     
   1116.4817486398595       -16.903220087829435        30.746843197057473     
   1116.6125814350783       -17.862754020842530        30.204267527237572     
   1116.7425049637222       -18.804866587360621        29.631728282020276     
   1116.8711891242942       -19.728615699407829        29.029776444654040     
   1116.9980594868994       -20.633071668594855        28.398986808431307     
   1117.1223108440572       -21.517317478581134        27.739958542231435     
   1117.2429238826535       -22.380449238928342        27.053315838738946     
   1117.3586848169375       -23.221576833181725        26.339708615864069     
   1117.4682077900436       -24.039824769699965        25.599813240083446     
   1117.5699598189074       -24.834333239174835        24.834333239167119     
   1117.6622880249013       -25.604259378004560        24.043999971102405     
   1117.7434488605552       -26.348778731790606        23.229573216002901     
   1117.8116390118455       -27.067086908298819        22.391841658427122     
   1117.8650276263995       -27.758401404358757        21.531623228844623     
   1117.9017894912708       -28.421963586467498        20.649765274981224     
   1117.9201387604978       -29.057040800422236        19.747144536441272     
   1117.9183628132384       -29.662928581235903        18.824666899319105     
   1117.8948558087238       -30.238952930998053        17.883266911431445     
   1117.8481514952784       -30.784472629331336        16.923907043268933     
   1117.7769548279996       -31.298881538757332        15.947576684701282     
   1117.6801719538339       -31.781610865706597        14.955290872781806     
   1117.5569381342336       -32.232131337154641        13.948088751574129     
   1117.4066431944709       -32.649955252987226        12.927031770643046     
   1117.2289541151474       -33.034638375222592        11.893201634580464     
   1117.0238344151346       -33.385781617147231        10.847698021534747     
   1116.7915600158044       -33.703032498233746        9.7916360940385943     
   1116.5327313231692       -33.986086334355676        8.7261438303455989     
   1116.2482813166584       -34.234687137219836        7.6523592088600996     
   1115.9394794895543       -34.448628202004478        6.5714272819596484     
   1115.6079315454274       -34.627752367802202        5.4844971784640091     
   1115.2555748158397       -34.771951941483081        4.3927190761184844     
   1114.8846694257691       -34.881168281868419        3.2972411866775229     
   1114.4977852931863       -34.955391047481754        2.1992067964664073     
   1114.0977851066493       -34.994657117463838        1.0997514046620971     
   1113.6878034783449       -34.999049201348143       -7.2386121017260925E-012
   1113.2712225186447       -34.968694159148576       -1.0989354858412934     
   1112.8516441209231       -34.903761058480299       -2.1959585129025765     
   1112.4328592814588       -34.804459000105275       -3.2899900246556730     
   1112.0188148081752       -34.671034747275620       -4.3799702697143212     
   1111.6135777935626       -34.503770197471191       -5.4648603318205815     
   1111.2212982413530       -34.302979737549826       -6.5436433514422063     
   1110.8461702436721       -34.069007524930015       -7.6153254278520395     
   1110.4923921059146       -33.802224738209596       -8.6789361961226881     
   1110.1641258111292       -33.503026840614510       -9.7335290790169591     
   1109.8654562050931       -33.171830898912546       -10.778181219172350     
   1109.6003502683877       -32.809072998973818       -11.811993102174924     
   1109.3726168236551       -32.415205797082344       -12.834087886015856     
   1109.1858670058398       -31.990696243476187       -13.843610456960592     
   1109.0434758015986       -31.536023511497110       -14.839726235989385     
   1108.9485449421350       -31.051677162242783       -15.821619763656948     
   1108.9038674123885       -30.538155570813018       -16.788493094450555     
   1108.9118938194974       -29.995964636195623       -17.739564034492727     
   1108.9747008454258       -29.425616792612118       -18.674064258740863     
   1109.0939619930571       -28.827630335792197       -19.591237345690814     
   1109.2709208222072       -28.202529073214926       -20.490336769008969     
   1109.5063668620937       -27.550842302880273       -21.370623886514220     
   1109.8006143796947       -26.873105120683043       -22.231365967521796     
   1110.1534841790372       -26.169859051975017       -23.071834299757118     
   1110.5642886043045       -25.441652998431614       -23.891302416858601     
   1111.0318199192759       -24.689044486898840       -24.689044486911616     
   1111.5543422362857       -23.912601202492763       -25.464333901488654     
   1112.1295871688485       -23.112902783867533       -26.216442103297037     
   1112.7547533823404       -22.290542854270928       -26.944637688734808     
   1113.4265102157308       -21.446131257790373       -27.648185819401522     
   1114.1410055431827       -20.580296466082942       -28.326347973869368     
   1114.8938780362753       -19.693688116919386       -28.978382067758503     
   1115.6802739746067       -18.786979642106754       -29.603542966342197     
   1116.4948687334952       -17.860870938847548       -30.201083409504331     
   1117.3318930514652       -16.916091035428092       -30.770255363855682     
   1118.1851641464234       -15.953400699391530       -31.310311811180675     
   1119.0481217072036       -14.973594934149872       -31.820508976130412     
   1119.9138687361976       -13.977505308433084       -32.300108989231610     
   1120.7752171589848       -12.966002062185945       -32.748382973888198     
   1121.6247380485704       -11.939995932621038       -33.164614538195053     
   1122.4548162357123       -10.900439645241514       -33.548103644165295     
   1123.2577089939912       -9.8483290168606761       -33.898170818537942     
   1124.0256084003395       -8.7847036210622331       -34.214161660850273     
   1124.7507068807095       -7.7106469712224168       -34.495451596136029     
   1125.4252653588289       -6.6272861821902422       -34.741450811672081     
   1126.0416833364261       -5.5357910789790612       -34.951609309896511     
   1126.5925701488843       -4.4373727293131653       -35.125422003219420     
   1127.0708165644210       -3.3332813864850106       -35.262433771212933     
   1127.4696658307487       -2.2248038395592826       -35.362244396851729     
   1127.7827832241262       -1.1132601792953500       -35.424513296316690     
   1128.0043231246698        1.1013239806396703E-011  -35.448963956568434     
   1128.1289926313391        1.1136019305414915       -35.435387996596539     
   1128.1521107421549        2.2261504887242110       -35.383648772041909     
   1128.0696621611944        3.3362354452818903       -35.293684448795837     
   1127.8783448541708        4.4424370815813008       -35.165510479140387     
   1127.5756105584703        5.5433320970263580       -34.999221423874367     
   1127.1596975598918        6.6374997245178902       -34.794992075449869     
   1126.6296551746832        7.7235279651239956       -34.553077850135715     
   1125.9853595184661        8.8000198493038564       -34.273814431270608     
   1125.2275202993085        9.8655996304556073       -33.957616660366050     
   1124.3576785359257        10.918918817302663       -33.604976687727628     
   1123.3781952687805        11.958661954678382       -33.216461408932162     
   1122.2922314965488        12.983552067531251       -32.792709227479293     
   1121.1037197279998        13.992355690271310       -32.334426196812750     
   1119.8173276850191        14.983887412669272       -31.842381606302759     
   1118.4384148221025        15.957013884092779       -31.317403085385578     
   1116.9729824376359        16.910657229561146       -30.760371307631445     
   1115.4276182400245        17.843797843541704       -30.172214381900929     
   1113.8094362954712        18.755476540195726       -29.553902020882955     
   1112.1260133232258        19.644796051528722       -28.906439578199318     
   1110.3853223185902        20.510921877237596       -28.230862044005629     
   1108.5956644749162        21.353082501654214       -27.528228085778128     
   1106.7656003451666        22.170569003778169       -26.799614215976035     
   1104.9038811337434        22.962734095755067       -26.046109161770978     
   1103.0193809432055        23.728990633123654       -25.268808504338583     
   1101.1210307214103        24.468809646633620       -24.468809646615895     
   1099.2177545659904        25.181717950381270       -23.647207159257079     