 VARIABLES = "x_1", "x_2", "x_3"
 ZONE F = POINT , I =         201  , J =         101
  -417.94321854889733       -0.0000000000000000       -0.0000000000000000     
  -417.94321854889733       -0.0000000000000000       -0.0000000000000000     
  -417.94321854889733       -0.0000000000000000       -0.0000000000000000     
  -417.94321854889733       -0.0000000000000000       -0.0000000000000000     
  -417.94321854889733       -0.0000000000000000       -0.0000000000000000     
  -417.94321854889733       -0.0000000000000000       -0.0000000000000000     
  -417.94321854889733       -0.0000000000000000       -0.0000000000000000     
  -417.94321854889733       -0.0000000000000000       -0.0000000000000000     
  -417.94321854889733       -0.0000000000000000       -0.0000000000000000     
  -417.94321854889733       -0.0000000000000000       -0.0000000000000000     
  -417.94321854889733       -0.0000000000000000       -0.0000000000000000     
  -417.94321854889733       -0.0000000000000000       -0.0000000000000000     
  -417.94321854889733       -0.0000000000000000       -0.0000000000000000     
  -417.94321854889733       -0.0000000000000000       -0.0000000000000000     
  -417.94321854889733       -0.0000000000000000       -0.0000000000000000     
  -417.94321854889733       -0.0000000000000000       -0.0000000000000000     
  -417.94321854889733       -0.0000000000000000       -0.0000000000000000     
  -417.94321854889733       -0.0000000000000000       -0.0000000000000000     
  -417.94321854889733       -0.0000000000000000       -0.0000000000000000     
  -417.94321854889733       -0.0000000000000000       -0.0000000000000000     
  -417.94321854889733       -0.0000000000000000       -0.0000000000000000     
  -417.94321854889733       -0.0000000000000000       -0.0000000000000000     
  -417.94321854889733       -0.0000000000000000       -0.0000000000000000     
  -417.94321854889733       -0.0000000000000000       -0.0000000000000000     
  -417.94321854889733       -0.0000000000000000       -0.0000000000000000     
  -417.94321854889733       -0.0000000000000000       -0.0000000000000000     
  -417.94321854889733       -0.0000000000000000       -0.0000000000000000     
  -417.94321854889733       -0.0000000000000000       -0.0000000000000000     
  -417.94321854889733       -0.0000000000000000       -0.0000000000000000     
  -417.94321854889733       -0.0000000000000000       -0.0000000000000000     
  -417.94321854889733       -0.0000000000000000       -0.0000000000000000     
  -417.94321854889733       -0.0000000000000000       -0.0000000000000000     
  -417.94321854889733       -0.0000000000000000       -0.0000000000000000     
  -417.94321854889733       -0.0000000000000000       -0.0000000000000000     
  -417.94321854889733       -0.0000000000000000       -0.0000000000000000     
  -417.94321854889733       -0.0000000000000000       -0.0000000000000000     
  -417.94321854889733       -0.0000000000000000       -0.0000000000000000     
  -417.94321854889733       -0.0000000000000000       -0.0000000000000000     
  -417.94321854889733       -0.0000000000000000       -0.0000000000000000     
  -417.94321854889733       -0.0000000000000000       -0.0000000000000000     
  -417.94321854889733       -0.0000000000000000       -0.0000000000000000     
  -417.94321854889733       -0.0000000000000000       -0.0000000000000000     
  -417.94321854889733       -0.0000000000000000       -0.0000000000000000     
  -417.94321854889733       -0.0000000000000000       -0.0000000000000000     
  -417.94321854889733       -0.0000000000000000       -0.0000000000000000     
  -417.94321854889733       -0.0000000000000000       -0.0000000000000000     
  -417.94321854889733       -0.0000000000000000       -0.0000000000000000     
  -417.94321854889733       -0.0000000000000000       -0.0000000000000000     
  -417.94321854889733       -0.0000000000000000       -0.0000000000000000     
  -417.94321854889733       -0.0000000000000000       -0.0000000000000000     
  -417.94321854889733        0.0000000000000000       -0.0000000000000000     
  -417.94321854889733        0.0000000000000000       -0.0000000000000000     
  -417.94321854889733        0.0000000000000000       -0.0000000000000000     
  -417.94321854889733        0.0000000000000000       -0.0000000000000000     
  -417.94321854889733        0.0000000000000000       -0.0000000000000000     
  -417.94321854889733        0.0000000000000000       -0.0000000000000000     
  -417.94321854889733        0.0000000000000000       -0.0000000000000000     
  -417.94321854889733        0.0000000000000000       -0.0000000000000000     
  -417.94321854889733        0.0000000000000000       -0.0000000000000000     
  -417.94321854889733        0.0000000000000000       -0.0000000000000000     
  -417.94321854889733        0.0000000000000000       -0.0000000000000000     
  -417.94321854889733        0.0000000000000000       -0.0000000000000000     
  -417.94321854889733        0.0000000000000000       -0.0000000000000000     
  -417.94321854889733        0.0000000000000000       -0.0000000000000000     
  -417.94321854889733        0.0000000000000000       -0.0000000000000000     
  -417.94321854889733        0.0000000000000000       -0.0000000000000000     
  -417.94321854889733        0.0000000000000000       -0.0000000000000000     
  -417.94321854889733        0.0000000000000000       -0.0000000000000000     
  -417.94321854889733        0.0000000000000000       -0.0000000000000000     
  -417.94321854889733        0.0000000000000000       -0.0000000000000000     
  -417.94321854889733        0.0000000000000000       -0.0000000000000000     
  -417.94321854889733        0.0000000000000000       -0.0000000000000000     
  -417.94321854889733        0.0000000000000000       -0.0000000000000000     
  -417.94321854889733        0.0000000000000000       -0.0000000000000000     
  -417.94321854889733        0.0000000000000000       -0.0000000000000000     
  -417.94321854889733        0.0000000000000000       -0.0000000000000000     
  -417.94321854889733        0.0000000000000000       -0.0000000000000000     
  -417.94321854889733        0.0000000000000000       -0.0000000000000000     
  -417.94321854889733        0.0000000000000000       -0.0000000000000000     
  -417.94321854889733        0.0000000000000000       -0.0000000000000000     
  -417.94321854889733        0.0000000000000000       -0.0000000000000000     
  -417.94321854889733        0.0000000000000000       -0.0000000000000000     
  -417.94321854889733        0.0000000000000000       -0.0000000000000000     
  -417.94321854889733        0.0000000000000000       -0.0000000000000000     
  -417.94321854889733        0.0000000000000000       -0.0000000000000000     
  -417.94321854889733        0.0000000000000000       -0.0000000000000000     
  -417.94321854889733        0.0000000000000000       -0.0000000000000000     
  -417.94321854889733        0.0000000000000000       -0.0000000000000000     
  -417.94321854889733        0.0000000000000000       -0.0000000000000000     
  -417.94321854889733        0.0000000000000000       -0.0000000000000000     
  -417.94321854889733        0.0000000000000000       -0.0000000000000000     
  -417.94321854889733        0.0000000000000000       -0.0000000000000000     
  -417.94321854889733        0.0000000000000000       -0.0000000000000000     
  -417.94321854889733        0.0000000000000000       -0.0000000000000000     
  -417.94321854889733        0.0000000000000000       -0.0000000000000000     
  -417.94321854889733        0.0000000000000000       -0.0000000000000000     
  -417.94321854889733        0.0000000000000000       -0.0000000000000000     
  -417.94321854889733        0.0000000000000000       -0.0000000000000000     
  -417.94321854889733        0.0000000000000000       -0.0000000000000000     
  -417.94321854889733        0.0000000000000000       -0.0000000000000000     
  -417.94321854889733        0.0000000000000000        0.0000000000000000     
  -417.94321854889733        0.0000000000000000        0.0000000000000000     
  -417.94321854889733        0.0000000000000000        0.0000000000000000     
  -417.94321854889733        0.0000000000000000        0.0000000000000000     
  -417.94321854889733        0.0000000000000000        0.0000000000000000     
  -417.94321854889733        0.0000000000000000        0.0000000000000000     
  -417.94321854889733        0.0000000000000000        0.0000000000000000     
  -417.94321854889733        0.0000000000000000        0.0000000000000000     
  -417.94321854889733        0.0000000000000000        0.0000000000000000     
  -417.94321854889733        0.0000000000000000        0.0000000000000000     
  -417.94321854889733        0.0000000000000000        0.0000000000000000     
  -417.94321854889733        0.0000000000000000        0.0000000000000000     
  -417.94321854889733        0.0000000000000000        0.0000000000000000     
  -417.94321854889733        0.0000000000000000        0.0000000000000000     
  -417.94321854889733        0.0000000000000000        0.0000000000000000     
  -417.94321854889733        0.0000000000000000        0.0000000000000000     
  -417.94321854889733        0.0000000000000000        0.0000000000000000     
  -417.94321854889733        0.0000000000000000        0.0000000000000000     
  -417.94321854889733        0.0000000000000000        0.0000000000000000     
  -417.94321854889733        0.0000000000000000        0.0000000000000000     
  -417.94321854889733        0.0000000000000000        0.0000000000000000     
  -417.94321854889733        0.0000000000000000        0.0000000000000000     
  -417.94321854889733        0.0000000000000000        0.0000000000000000     
  -417.94321854889733        0.0000000000000000        0.0000000000000000     
  -417.94321854889733        0.0000000000000000        0.0000000000000000     
  -417.94321854889733        0.0000000000000000        0.0000000000000000     
  -417.94321854889733        0.0000000000000000        0.0000000000000000     
  -417.94321854889733        0.0000000000000000        0.0000000000000000     
  -417.94321854889733        0.0000000000000000        0.0000000000000000     
  -417.94321854889733        0.0000000000000000        0.0000000000000000     
  -417.94321854889733        0.0000000000000000        0.0000000000000000     
  -417.94321854889733        0.0000000000000000        0.0000000000000000     
  -417.94321854889733        0.0000000000000000        0.0000000000000000     
  -417.94321854889733        0.0000000000000000        0.0000000000000000     
  -417.94321854889733        0.0000000000000000        0.0000000000000000     
  -417.94321854889733        0.0000000000000000        0.0000000000000000     
  -417.94321854889733        0.0000000000000000        0.0000000000000000     
  -417.94321854889733        0.0000000000000000        0.0000000000000000     
  -417.94321854889733        0.0000000000000000        0.0000000000000000     
  -417.94321854889733        0.0000000000000000        0.0000000000000000     
  -417.94321854889733        0.0000000000000000        0.0000000000000000     
  -417.94321854889733        0.0000000000000000        0.0000000000000000     
  -417.94321854889733        0.0000000000000000        0.0000000000000000     
  -417.94321854889733        0.0000000000000000        0.0000000000000000     
  -417.94321854889733        0.0000000000000000        0.0000000000000000     
  -417.94321854889733        0.0000000000000000        0.0000000000000000     
  -417.94321854889733        0.0000000000000000        0.0000000000000000     
  -417.94321854889733        0.0000000000000000        0.0000000000000000     
  -417.94321854889733        0.0000000000000000        0.0000000000000000     
  -417.94321854889733        0.0000000000000000        0.0000000000000000     
  -417.94321854889733       -0.0000000000000000        0.0000000000000000     
  -417.94321854889733       -0.0000000000000000        0.0000000000000000     
  -417.94321854889733       -0.0000000000000000        0.0000000000000000     
  -417.94321854889733       -0.0000000000000000        0.0000000000000000     
  -417.94321854889733       -0.0000000000000000        0.0000000000000000     
  -417.94321854889733       -0.0000000000000000        0.0000000000000000     
  -417.94321854889733       -0.0000000000000000        0.0000000000000000     
  -417.94321854889733       -0.0000000000000000        0.0000000000000000     
  -417.94321854889733       -0.0000000000000000        0.0000000000000000     
  -417.94321854889733       -0.0000000000000000        0.0000000000000000     
  -417.94321854889733       -0.0000000000000000        0.0000000000000000     
  -417.94321854889733       -0.0000000000000000        0.0000000000000000     
  -417.94321854889733       -0.0000000000000000        0.0000000000000000     
  -417.94321854889733       -0.0000000000000000        0.0000000000000000     
  -417.94321854889733       -0.0000000000000000        0.0000000000000000     
  -417.94321854889733       -0.0000000000000000        0.0000000000000000     
  -417.94321854889733       -0.0000000000000000        0.0000000000000000     
  -417.94321854889733       -0.0000000000000000        0.0000000000000000     
  -417.94321854889733       -0.0000000000000000        0.0000000000000000     
  -417.94321854889733       -0.0000000000000000        0.0000000000000000     
  -417.94321854889733       -0.0000000000000000        0.0000000000000000     
  -417.94321854889733       -0.0000000000000000        0.0000000000000000     
  -417.94321854889733       -0.0000000000000000        0.0000000000000000     
  -417.94321854889733       -0.0000000000000000        0.0000000000000000     
  -417.94321854889733       -0.0000000000000000        0.0000000000000000     
  -417.94321854889733       -0.0000000000000000        0.0000000000000000     
  -417.94321854889733       -0.0000000000000000        0.0000000000000000     
  -417.94321854889733       -0.0000000000000000        0.0000000000000000     
  -417.94321854889733       -0.0000000000000000        0.0000000000000000     
  -417.94321854889733       -0.0000000000000000        0.0000000000000000     
  -417.94321854889733       -0.0000000000000000        0.0000000000000000     
  -417.94321854889733       -0.0000000000000000        0.0000000000000000     
  -417.94321854889733       -0.0000000000000000        0.0000000000000000     
  -417.94321854889733       -0.0000000000000000        0.0000000000000000     
  -417.94321854889733       -0.0000000000000000        0.0000000000000000     
  -417.94321854889733       -0.0000000000000000        0.0000000000000000     
  -417.94321854889733       -0.0000000000000000        0.0000000000000000     
  -417.94321854889733       -0.0000000000000000        0.0000000000000000     
  -417.94321854889733       -0.0000000000000000        0.0000000000000000     
  -417.94321854889733       -0.0000000000000000        0.0000000000000000     
  -417.94321854889733       -0.0000000000000000        0.0000000000000000     
  -417.94321854889733       -0.0000000000000000        0.0000000000000000     
  -417.94321854889733       -0.0000000000000000        0.0000000000000000     
  -417.94321854889733       -0.0000000000000000        0.0000000000000000     
  -417.94321854889733       -0.0000000000000000        0.0000000000000000     
  -417.94321854889733       -0.0000000000000000        0.0000000000000000     
  -417.94321854889733       -0.0000000000000000        0.0000000000000000     
  -417.94321854889733       -0.0000000000000000        0.0000000000000000     
  -417.94321854889733       -0.0000000000000000        0.0000000000000000     
  -417.94321854889733       -0.0000000000000000        0.0000000000000000     
  -417.94321854889733       -0.0000000000000000       -0.0000000000000000     
  -442.91220020179264       -13.919076637388459       -0.0000000000000000     
  -443.18110906601578       -13.920655044851236      -0.43747420893724209     
  -443.42459933578323       -13.907681535479657      -0.87499715607448914     
  -443.64269856881316       -13.880158235354616       -1.3120612544134094     
  -443.83546981085556       -13.838106685758248       -1.7481594164828900     
  -444.00301019393766       -13.781567746883546       -2.1827858943849772     
  -444.14544945222667       -13.710601459130960       -2.6154371068821742     
  -444.26294836506577       -13.625286863596621       -3.0456124510846880     
  -444.35569713704206       -13.525721783511615       -3.4728150964811588     
  -444.42391372514635       -13.412022568524755       -3.8965527592512919     
  -444.46784212323212       -13.284323803833104       -4.3163384550013228     
  -444.48775061405331       -13.142777986254126       -4.7316912282710621     
  -444.48392999915291       -12.987555169400720       -5.1421368573717521     
  -444.45669181681114       -12.818842580166349       -5.5472085333250840     
  -444.40636655811960       -12.636844208751645       -5.9464475118828686     
  -444.33330189105072       -12.441780374467841       -6.3394037378121757     
  -444.23786090213031       -12.233887269536302       -6.7256364408300149     
  -444.12042036500060       -12.013416483069102       -7.1047147027628688     
  -443.98136904479549       -11.780634507363889       -7.4762179956882369     
  -443.82110604682379       -11.535822228578821       -7.8397366909857222     
  -443.64003921760133       -11.279274403771980       -8.1948725393833666     
  -443.43858360576149       -11.011299126195475       -8.5412391222291042     
  -443.21715998984371       -10.732217280630138       -8.8784622743471502     
  -442.97619347938695       -10.442361990433133       -9.2061804789534118     
  -442.71611219516393       -10.142078057850686       -9.5240452352028182     
  -442.43734603377760       -9.8317213990228556       -9.8317213990238734     
  -442.14032552121307       -9.5116584749789634       -10.128887497962342     
  -441.82548075929003       -9.1822657197924098       -10.415236020806086     
  -441.49324046831924       -8.8439289669348042       -10.690473682798007     
  -441.14403112860498       -8.4970428747419362       -10.954321667263313     
  -440.77827622278812       -8.1420103517812450       -11.206515844482309     
  -440.39639558036777       -7.7792419827922563       -11.446806968631124     
  -439.99880482510730       -7.4091554557604651       -11.674960853591317     
  -439.58591492538574       -7.0321749905815221       -11.890758528396036     
  -439.15813184694912       -6.6487307696784237       -12.093996373036914     
  -438.71585630690561       -6.2592583708498273       -12.284486235303120     
  -438.25948362723227       -5.8641982025539425       -12.462055529263568     
  -437.78940368549200       -5.4639949417699922       -12.626547315936270     
  -437.30600095993049       -5.0590969745286465       -12.777820366617433     
  -436.80965466560542       -4.6499558391641651       -12.915749209267613     
  -436.30073897771234       -4.2370256723145721       -13.040224158275141     
  -435.77962333783250       -3.8207626576819762       -13.151151327840211     
  -435.24667283838414       -3.4016244775625379       -13.248452629145987     
  -434.70224868018613       -2.9800697671649035       -13.332065751409699     
  -434.14670869767622       -2.5565575717559779       -13.401944126836396     
  -433.58040794600964       -2.1315468067034677       -13.458056879432890     
  -433.00369934397861       -1.7054957205246959       -13.500388757580748     
  -432.41693436644863       -1.2788613611000741       -13.528940050215539     
  -431.82046377979526      -0.85209904526597036       -13.543726486416247     
  -431.21463841366091      -0.42566183206480912       -13.544779118174644     
  -430.59980996221913        1.3993800532152824E-012  -13.532144186090035     
  -429.97633180804627       0.42443947129538240       -13.505882967720737     
  -429.34455986165045       0.84721341445275677       -13.466071608320483     
  -428.70485340970220        1.2678829823032007       -13.412800933695822     
  -428.05757596504083        1.6860141496569430       -13.346176244939546     
  -427.40309611160455        2.1011782082332933       -13.266317094825375     
  -426.74178833754451        2.5129522539348454       -13.173357045690302     
  -426.07403384993273        2.9209196656019727       -13.067443408682600     
  -425.40022136466007        3.3246705743182892       -12.948736964315261     
  -424.72074786535234        3.7238023222803003       -12.817411664336223     
  -424.03601932538305        4.1179199101944439       -12.673654315006280     
  -423.34645138736045        4.5066364321233054       -12.517664241963660     
  -422.65246999478802        4.8895734966708879       -12.349652936948763     
  -421.95451197095127        5.2663616333750269       -12.169843686762801     
  -421.25302554046357        5.6366406831644058       -11.978471184938961     
  -420.54847078930152        6.0000601717382320       -11.775781126712578     
  -419.84132005959566        6.3562796647393638       -11.562029787987125     
  -419.13205827586933        6.7049691036161656       -11.337483589102954     
  -418.42118319988509        7.0458091211053375       -11.102418644325885     
  -417.70920561171835        7.3784913353167489       -10.857120298080080     
  -416.99664941515709        7.7027186214621794       -10.601882649053961     
  -416.28405166600146        8.0182053603419678       -10.337008063407115     
  -415.57196252231182        8.3246776627867050       -10.062806678399264     
  -414.86094511613913        8.6218735693446131       -9.7795958978484663     
  -414.15157534672818        8.9095432246079191       -9.4876998809030937     
  -413.44444159564728        9.1874490256830459       -9.1874490256801913     
  -412.74014436474522        9.4553657444282795       -8.8791794493808975     
  -412.03929583825152        9.7130806232077855       -8.5632324665398620     
  -411.34251937075913        9.9603934440415518       -8.2399540671010350     
  -410.65044890319581        10.197116571165042       -7.9096943960345358     
  -409.96372830926396        10.423074967149731       -7.5728072362197238     
  -409.28301067514769        10.638106182874003       -7.2296494963165649     
  -408.60895751559679        10.842060321772601       -6.8805807053320303     
  -407.94223792975959        11.034799978929954       -6.5259625155595353     
  -407.28352770038504        11.216200155717635       -6.1661582155285046     
  -406.63350834020531        11.386148150806884       -5.8015322545475163     
  -405.99286608949473        11.544543428513300       -5.4324497803594758     
  -405.36229086892916        11.691297465550559       -5.0592761913506248     
  -404.74247519197701        11.826333577382771       -4.6823767046682985     
  -404.13411304111838        11.949586725469624       -4.3021159415055568     
  -403.53789871223250        12.061003306794376       -3.9188575307052220     
  -402.95452563149456        12.160540927150663       -3.5329637317224223     
  -402.38468514909772        12.248168159739807       -3.1447950778641838     
  -401.82906531407070        12.323864290695584       -2.7547100405984617     
  -401.28834963437379        12.387619053206835       -2.3630647155938083     
  -400.76321582636143        12.439432351950989       -1.9702125310161804     
  -400.25433455757098        12.479313979582074       -1.5765039784719133     
  -399.76236818665114        12.507283327035873       -1.1822863668469634     
  -399.28796950409378        12.523369089422538      -0.78790359915311270     
  -398.83178047724493        12.527608969272599      -0.39369597235286474     
  -398.39443100289515        12.520049378887309        2.5894355137147835E-012
  -397.97653767055351        12.500745143518147       0.39285174262294464     
  -397.57870253930793        12.469759207063486       0.78453075124817495     
  -397.20151193097217        12.427162341923966        1.1747127038975900     
  -396.84553524201948        12.373032864601939        1.5630775512811348     
  -396.51132377659741        12.307456358565215        1.9493095871727508     
  -396.19940960272606        12.230525405822128        2.3330974996567297     
  -395.91030443358574        12.142339328573657        2.7141344042626252     
  -395.64449853562479        12.043003942220521        3.0921178601015966     
  -395.40245966504028        11.932631320908460        3.4667498702072703     
  -395.18463203403240        11.811339576695030        3.8377368673664263     
  -394.99143530807766        11.679252653315761        4.2047896867991001     
  -394.82326363534764        11.536500135418336        4.5676235271139172     
  -394.68048470926993        11.383217074019685        4.9259579010221541     
  -394.56343886514577        11.219543828824943        5.2795165773435926     
  -394.47243821164028        11.045625927927768        5.6280275158780233     
  -394.40776579791492        10.861613945290991        5.9712227967489842     
  -394.36967481710877        10.667663396283766        6.3088385458501870     
  -394.35838784685996        10.463934651428499        6.6406148580410056     
  -394.37409612754089        10.250592868386830        6.9662957197447124     
  -394.41695887888727        10.027807942090375        7.2856289326023838     
  -394.48710265572373        9.7957544727986967        7.5983660398264838     
  -394.58462074352616        9.5546117517446181        7.9042622568813208     
  -394.70957259460965        9.3045637639059766        8.2030764080925351     
  -394.86198330580089        9.0457992073235722        8.4945708707555276     
  -395.04184313852028        8.7785115282675505        8.7785115282720945     
  -395.24910708229470        8.5028989714397216        9.0546677337969577     
  -395.48369446281083        8.2191646442870177        9.3228122858205644     
  -395.74548859571809        7.9275165943921442        9.5827214170516299     
  -396.03433648750018        7.6281678988020660        9.8341747978932705     
  -396.35004858483808        7.3213367640530578        10.076955555729254     
  -396.69239857399833        7.0072466355536029        10.310850311152961     
  -397.06112323188415        6.6861263148937162        10.535649232180214     
  -397.45592233049251        6.3582100835611044        10.751146107389689     
  -397.87645859661291        6.0237378314627836        10.957138438829491     
  -398.32235772869524        5.6829551885738780        11.153427555417805     
  -398.79320847288722        5.3361136579659911        11.339818747447584     
  -399.28856276030638        4.9834707484040015        11.516121422681945     
  -399.80793590765978        4.6252901046451962        11.682149284397058     
  -400.35080688335415        4.2618416335266307        11.837720531594449     
  -400.91661864124791        3.8934016238881801        11.982658081463848     
  -401.50477852418635        3.5202528583483916        12.116789814032712     
  -402.11465873942240        3.1426847149306822        12.239948838788468     
  -402.74559690796451        2.7609932565269517        12.351973782906079     
  -403.39689668980253        2.3754813061872762        12.452709100556353     
  -404.06782848684611        1.9864585062359790        12.542005402610890     
  -404.75763022525433        1.5942413592392222        12.619719805897729     
  -405.46550821866350        1.1991532488852314        12.685716300999253     
  -406.19063811359990       0.80152443888794733        12.739866137420782     
  -406.93216591812410       0.40169204808744302        12.782048224796092     
  -407.68920911447327       -3.9804626049838852E-012   12.812149548635700     
  -408.46085785615838      -0.40320105487076713        12.830065598966115     
  -409.24617624963406      -0.80755384543606212        12.835700810054888     
  -410.04420372028108       -1.2126946167164192        12.828969009267976     
  -410.85395646204796       -1.6182532979985351        12.809793872964621     
  -411.67442896965861       -2.0238537037017355        12.778109387201029     
  -412.50459565184951       -2.4291137679326322        12.733860310890067     
  -413.34341252361327       -2.8336458135667666        12.677002638950340     
  -414.18981897493387       -3.2370568565098767        12.607504062876437     
  -415.04273961298600       -3.6389489455963444        12.525344426073902     
  -415.90108617423971       -4.0389195383783925        12.430516171228648     
  -416.76375950238656       -4.4365619128449083        12.323024776923251     
  -417.62965158745942       -4.8314656148873016        12.202889180671619     
  -418.49764766098536       -5.2232169411007421        12.070142185521387     
  -419.36662834147796       -5.6113994562753451        11.924830847370117     
  -420.23547182406526       -5.9955945446951500        11.767016840158130     
  -421.10305610753727       -6.3753819941234005        11.596776796138331     
  -421.96826125163233       -6.7503406111150035        11.414202618481822     
  -422.82997165691756       -7.1200488660603982        11.219401763558277     
  -423.68707835921850       -7.4840855661343717        11.012497490331635     
  -424.53848133016368       -7.8420305540977653        10.793629074434726     
  -425.38309177508933       -8.1934654306847605        10.562951984630558     
  -426.21983441926130       -8.5379742981026094        10.320638019532815     
  -427.04764977315017       -8.8751445219794576        10.066875402642225     
  -427.86549636732531       -9.2045675089183518        9.8018688339587854     
  -428.67235294742835       -9.5258394966565358        9.5258394966496365     
  -429.46722061965693       -9.8385623536879621        9.2390250174891104     