 VARIABLES = "x_1", "x_2", "x_3"
 ZONE F = POINT , I =         201  , J =         101
   402.83626121046177        0.0000000000000000        0.0000000000000000     
   408.75147403472522        0.0000000000000000        0.0000000000000000     
   415.21215002305399        0.0000000000000000        0.0000000000000000     
   422.25310393243410        0.0000000000000000        0.0000000000000000     
   429.91334907717675        0.0000000000000000        0.0000000000000000     
   438.23658759720189        0.0000000000000000        0.0000000000000000     
   447.27177163608741        0.0000000000000000        0.0000000000000000     
   457.07374467363121        0.0000000000000000        0.0000000000000000     
   467.70397290063227        0.0000000000000000        0.0000000000000000     
   479.23137678145497        0.0000000000000000        0.0000000000000000     
   491.73327249471424        0.0000000000000000        0.0000000000000000     
   505.29643124948001        0.0000000000000000        0.0000000000000000     
   520.01826071318942        0.0000000000000000        0.0000000000000000     
   536.00810565309246        0.0000000000000000        0.0000000000000000     
   553.38865234763102        0.0000000000000000        0.0000000000000000     
   572.29740020171687        0.0000000000000000        0.0000000000000000     
   592.88812940913135        0.0000000000000000        0.0000000000000000     
   615.33223794043874        0.0000000000000000        0.0000000000000000     
   639.81973318518601        0.0000000000000000        0.0000000000000000     
   666.55952613336331        0.0000000000000000        0.0000000000000000     
   695.77846393001062        0.0000000000000000        0.0000000000000000     
   727.71821436192533        0.0000000000000000        0.0000000000000000     
   762.62863571028765        0.0000000000000000        0.0000000000000000     
   800.75557053797752        0.0000000000000000        0.0000000000000000     
   842.32004097436572        0.0000000000000000        0.0000000000000000     
   887.48459334026654        0.0000000000000000        0.0000000000000000     
   936.30119128394642        0.0000000000000000        0.0000000000000000     
   988.63410498708913        0.0000000000000000        0.0000000000000000     
   1044.0519476619606        0.0000000000000000        0.0000000000000000     
   1101.6878705754787        0.0000000000000000        0.0000000000000000     
   1160.0799236701037        0.0000000000000000        0.0000000000000000     
   1217.0289137579975        0.0000000000000000        0.0000000000000000     
   1269.5480549516635        0.0000000000000000        0.0000000000000000     
   1314.0113685087840        0.0000000000000000        0.0000000000000000     
   1346.5961947759040        0.0000000000000000        0.0000000000000000     
   1364.0115500882971        0.0000000000000000        0.0000000000000000     
   1364.3152976669091        0.0000000000000000        0.0000000000000000     
   1347.4723863100060        0.0000000000000000        0.0000000000000000     
   1315.3654222454836        0.0000000000000000        0.0000000000000000     
   1271.2517738450194        0.0000000000000000        0.0000000000000000     
   1218.9491521699456        0.0000000000000000        0.0000000000000000     
   1162.0996651444120        0.0000000000000000        0.0000000000000000     
   1103.7163066120834        0.0000000000000000        0.0000000000000000     
   1046.0256353215718        0.0000000000000000        0.0000000000000000     
   990.51312695949071        0.0000000000000000        0.0000000000000000     
   938.06360370017001        0.0000000000000000        0.0000000000000000     
   889.12107909532369        0.0000000000000000        0.0000000000000000     
   843.82956192904442        0.0000000000000000        0.0000000000000000     
   802.14215715915861        0.0000000000000000        0.0000000000000000     
   763.89916399973754        0.0000000000000000        0.0000000000000000     
   728.88093965442533       -0.0000000000000000        0.0000000000000000     
   696.84209480172217       -0.0000000000000000        0.0000000000000000     
   667.53266605079034       -0.0000000000000000        0.0000000000000000     
   640.71056404271019       -0.0000000000000000        0.0000000000000000     
   616.14835815287768       -0.0000000000000000        0.0000000000000000     
   593.63648794976632       -0.0000000000000000        0.0000000000000000     
   572.98428819530534       -0.0000000000000000        0.0000000000000000     
   554.01972756492046       -0.0000000000000000        0.0000000000000000     
   536.58843436968732       -0.0000000000000000        0.0000000000000000     
   520.55236734417622       -0.0000000000000000        0.0000000000000000     
   505.78835000056034       -0.0000000000000000        0.0000000000000000     
   492.18659770515336       -0.0000000000000000        0.0000000000000000     
   479.64931016125882       -0.0000000000000000        0.0000000000000000     
   468.08936680646923       -0.0000000000000000        0.0000000000000000     
   457.42914113604098       -0.0000000000000000        0.0000000000000000     
   447.59943718141676       -0.0000000000000000        0.0000000000000000     
   438.53854408985165       -0.0000000000000000        0.0000000000000000     
   430.19140089786504       -0.0000000000000000        0.0000000000000000     
   422.50886184249589       -0.0000000000000000        0.0000000000000000     
   415.44705206628720       -0.0000000000000000        0.0000000000000000     
   408.96680381138088       -0.0000000000000000        0.0000000000000000     
   403.03316383165196       -0.0000000000000000        0.0000000000000000     
   397.61496357396567       -0.0000000000000000        0.0000000000000000     
   392.68444456663428       -0.0000000000000000        0.0000000000000000     
   388.21693233288028       -0.0000000000000000        0.0000000000000000     
   384.19055298004764       -0.0000000000000000        0.0000000000000000     
   380.58598738204375       -0.0000000000000000        0.0000000000000000     
   377.38625856588897       -0.0000000000000000        0.0000000000000000     
   374.57654853342177       -0.0000000000000000        0.0000000000000000     
   372.14404130031517       -0.0000000000000000        0.0000000000000000     
   370.07778942291708       -0.0000000000000000        0.0000000000000000     
   368.36860171624733       -0.0000000000000000        0.0000000000000000     
   367.00895025120030       -0.0000000000000000        0.0000000000000000     
   365.99289506289682       -0.0000000000000000        0.0000000000000000     
   365.31602531209614       -0.0000000000000000        0.0000000000000000     
   364.97541592410778       -0.0000000000000000        0.0000000000000000     
   364.96959899078001       -0.0000000000000000        0.0000000000000000     
   365.29854946656252       -0.0000000000000000        0.0000000000000000     
   365.96368492472726       -0.0000000000000000        0.0000000000000000     
   366.96787936976921       -0.0000000000000000        0.0000000000000000     
   368.31549133184336       -0.0000000000000000        0.0000000000000000     
   370.01240670392497       -0.0000000000000000        0.0000000000000000     
   372.06609702734818       -0.0000000000000000        0.0000000000000000     
   374.48569419187982       -0.0000000000000000        0.0000000000000000     
   377.28208279816312       -0.0000000000000000        0.0000000000000000     
   380.46801173928401       -0.0000000000000000        0.0000000000000000     
   384.05822690080100       -0.0000000000000000        0.0000000000000000     
   388.06962726176897       -0.0000000000000000        0.0000000000000000     
   392.52144711029911       -0.0000000000000000        0.0000000000000000     
   397.43546757350583       -0.0000000000000000        0.0000000000000000     
   402.83626121049900       -0.0000000000000000       -0.0000000000000000     
   408.75147403476598       -0.0000000000000000       -0.0000000000000000     
   415.21215002309845       -0.0000000000000000       -0.0000000000000000     
   422.25310393248236       -0.0000000000000000       -0.0000000000000000     
   429.91334907722933       -0.0000000000000000       -0.0000000000000000     
   438.23658759725902       -0.0000000000000000       -0.0000000000000000     
   447.27177163614942       -0.0000000000000000       -0.0000000000000000     
   457.07374467369840       -0.0000000000000000       -0.0000000000000000     
   467.70397290070503       -0.0000000000000000       -0.0000000000000000     
   479.23137678153404       -0.0000000000000000       -0.0000000000000000     
   491.73327249480002       -0.0000000000000000       -0.0000000000000000     
   505.29643124957317       -0.0000000000000000       -0.0000000000000000     
   520.01826071329060       -0.0000000000000000       -0.0000000000000000     
   536.00810565320216       -0.0000000000000000       -0.0000000000000000     
   553.38865234775039       -0.0000000000000000       -0.0000000000000000     
   572.29740020184693       -0.0000000000000000       -0.0000000000000000     
   592.88812940927289       -0.0000000000000000       -0.0000000000000000     
   615.33223794059302       -0.0000000000000000       -0.0000000000000000     
   639.81973318535427       -0.0000000000000000       -0.0000000000000000     
   666.55952613354725       -0.0000000000000000       -0.0000000000000000     
   695.77846393021173       -0.0000000000000000       -0.0000000000000000     
   727.71821436214543       -0.0000000000000000       -0.0000000000000000     
   762.62863571052833       -0.0000000000000000       -0.0000000000000000     
   800.75557053824002       -0.0000000000000000       -0.0000000000000000     
   842.32004097465119       -0.0000000000000000       -0.0000000000000000     
   887.48459334057623       -0.0000000000000000       -0.0000000000000000     
   936.30119128427998       -0.0000000000000000       -0.0000000000000000     
   988.63410498744440       -0.0000000000000000       -0.0000000000000000     
   1044.0519476623342       -0.0000000000000000       -0.0000000000000000     
   1101.6878705758634       -0.0000000000000000       -0.0000000000000000     
   1160.0799236704859       -0.0000000000000000       -0.0000000000000000     
   1217.0289137583623       -0.0000000000000000       -0.0000000000000000     
   1269.5480549519873       -0.0000000000000000       -0.0000000000000000     
   1314.0113685090421       -0.0000000000000000       -0.0000000000000000     
   1346.5961947760718       -0.0000000000000000       -0.0000000000000000     
   1364.0115500883564       -0.0000000000000000       -0.0000000000000000     
   1364.3152976668537       -0.0000000000000000       -0.0000000000000000     
   1347.4723863098418       -0.0000000000000000       -0.0000000000000000     
   1315.3654222452285       -0.0000000000000000       -0.0000000000000000     
   1271.2517738446975       -0.0000000000000000       -0.0000000000000000     
   1218.9491521695827       -0.0000000000000000       -0.0000000000000000     
   1162.0996651440296       -0.0000000000000000       -0.0000000000000000     
   1103.7163066117000       -0.0000000000000000       -0.0000000000000000     
   1046.0256353211976       -0.0000000000000000       -0.0000000000000000     
   990.51312695913543       -0.0000000000000000       -0.0000000000000000     
   938.06360369983588       -0.0000000000000000       -0.0000000000000000     
   889.12107909501299       -0.0000000000000000       -0.0000000000000000     
   843.82956192875815       -0.0000000000000000       -0.0000000000000000     
   802.14215715889509       -0.0000000000000000       -0.0000000000000000     
   763.89916399949664       -0.0000000000000000       -0.0000000000000000     
   728.88093965420433        0.0000000000000000       -0.0000000000000000     
   696.84209480152060        0.0000000000000000       -0.0000000000000000     
   667.53266605060537        0.0000000000000000       -0.0000000000000000     
   640.71056404254148        0.0000000000000000       -0.0000000000000000     
   616.14835815272261        0.0000000000000000       -0.0000000000000000     
   593.63648794962444        0.0000000000000000       -0.0000000000000000     
   572.98428819517517        0.0000000000000000       -0.0000000000000000     
   554.01972756480086        0.0000000000000000       -0.0000000000000000     
   536.58843436957739        0.0000000000000000       -0.0000000000000000     
   520.55236734407504        0.0000000000000000       -0.0000000000000000     
   505.78835000046712        0.0000000000000000       -0.0000000000000000     
   492.18659770506730        0.0000000000000000       -0.0000000000000000     
   479.64931016117959        0.0000000000000000       -0.0000000000000000     
   468.08936680639596        0.0000000000000000       -0.0000000000000000     
   457.42914113597357        0.0000000000000000       -0.0000000000000000     
   447.59943718135452        0.0000000000000000       -0.0000000000000000     
   438.53854408979441        0.0000000000000000       -0.0000000000000000     
   430.19140089781217        0.0000000000000000       -0.0000000000000000     
   422.50886184244752        0.0000000000000000       -0.0000000000000000     
   415.44705206624258        0.0000000000000000       -0.0000000000000000     
   408.96680381134013        0.0000000000000000       -0.0000000000000000     
   403.03316383161456        0.0000000000000000       -0.0000000000000000     
   397.61496357393162        0.0000000000000000       -0.0000000000000000     
   392.68444456660330        0.0000000000000000       -0.0000000000000000     
   388.21693233285248        0.0000000000000000       -0.0000000000000000     
   384.19055298002257        0.0000000000000000       -0.0000000000000000     
   380.58598738202119        0.0000000000000000       -0.0000000000000000     
   377.38625856586913        0.0000000000000000       -0.0000000000000000     
   374.57654853340449        0.0000000000000000       -0.0000000000000000     
   372.14404130030039        0.0000000000000000       -0.0000000000000000     
   370.07778942290457        0.0000000000000000       -0.0000000000000000     
   368.36860171623715        0.0000000000000000       -0.0000000000000000     
   367.00895025119246        0.0000000000000000       -0.0000000000000000     
   365.99289506289125        0.0000000000000000       -0.0000000000000000     
   365.31602531209273        0.0000000000000000       -0.0000000000000000     
   364.97541592410658        0.0000000000000000       -0.0000000000000000     
   364.96959899078104        0.0000000000000000       -0.0000000000000000     
   365.29854946656582        0.0000000000000000       -0.0000000000000000     
   365.96368492473283        0.0000000000000000       -0.0000000000000000     
   366.96787936977688        0.0000000000000000       -0.0000000000000000     
   368.31549133185342        0.0000000000000000       -0.0000000000000000     
   370.01240670393730        0.0000000000000000       -0.0000000000000000     
   372.06609702736290        0.0000000000000000       -0.0000000000000000     
   374.48569419189693        0.0000000000000000       -0.0000000000000000     
   377.28208279818284        0.0000000000000000       -0.0000000000000000     
   380.46801173930635        0.0000000000000000       -0.0000000000000000     
   384.05822690082601        0.0000000000000000       -0.0000000000000000     
   388.06962726179694        0.0000000000000000       -0.0000000000000000     
   392.52144711032997        0.0000000000000000       -0.0000000000000000     
   397.43546757353977        0.0000000000000000       -0.0000000000000000     
   402.83626121053629        0.0000000000000000        0.0000000000000000     
   393.86120872597286        12.377587129579094        0.0000000000000000     
   401.61015409043648        12.614879793465509       0.39643856849436787     
   409.90659344343612        12.856414302328037       0.80885702790608560     
   418.78351622439732        13.102394089443610        1.2385408965314306     
   428.27744921586640        13.353031554416374        1.6868801766408026     
   438.42883177939098        13.608548835548380        2.1553823909475947     
   449.28243875439051        13.869178369259505        2.6456872703254932     
   460.88785585764123        14.135163130570294        3.1595832997540492     
   473.30001236948658        14.406756408634388        3.6990263401856422     
   486.57977547174073        14.684220917173027        4.2661605466236345     
   500.79460958987096        14.967826966346673        4.8633417911724068     
   516.01930215629807        15.257849323165548        5.4931637649370870     
   532.33675385756942        15.554562252538691        6.1584868603682894     
   549.83882592135637        15.858232047621881        6.8624698047330153     
   568.62722825470644        16.169106108810087        7.6086037939374167     
   588.81441866678074        16.487397292063278        8.4007485162324134     
   610.52446266223058        16.813261788034456        9.2431688865076005     
   633.89377198201271        17.146768172886482        10.140570429274801     
   659.07159331313596        17.487854437929471        11.098129898954026     
   686.22004945625827        17.836268695564918        12.121515688451032     
   715.51343409623155        18.191487803917809        13.216889537238286     
   747.13631520223612        18.552606288426723        14.390876574504107     
   781.27979445451047        18.918185638940511        15.650484247796310     
   818.13498181512171        19.286051401648230        17.002941488966858     
   857.88235764450087        19.653022774666816        18.455416813668698     
   900.67520358697664        20.014557432950745        20.014557432952820     
   946.61471662522354        20.364294709635409        21.685771270262407     
   995.71388751762572        20.693486216236263        23.472152692208386     
   1047.8469954445352        20.990320001496183        25.372938250461395     
   1102.6821973339593        21.239180963166731        27.381387107195216     
   1159.5971414809958        21.419957468734456        29.482042197231440     
   1217.5832183957234        21.507611290971170        31.647488964693490     
   1275.1544197101464        21.472370429478470        33.835041752709792     
   1330.2919140291592        21.281040202565517        35.984273801592238     
   1380.4714008407532        20.899949275286897        38.016866600270014     
   1422.8259679964528        20.299779965587085        39.840561419911317     
   1454.4752827433922        19.461829480859976        41.358492894375324     
   1472.9907596751657        18.384213944842362        42.483411810343320     
   1476.8814464130426        17.085716731269674        43.153594470763124     
   1465.9297138941440        15.605214674443559        43.345151236559950     
   1441.2375014503928        13.996218085387582        43.075929984124045     
   1404.9637721101003        12.318228821159872        42.399621707023158     
   1359.8664793462744        10.627893080020659        41.392910636383881     
   1308.8205666726665        8.9725245572731964        40.140767398042300     
   1254.4469482919985        7.3870555270185667        38.724301196527250     
   1198.9047765322869        5.8939970559674135        37.213232839626947     
   1143.8294579610488        4.5052646167185202        35.662841629858150     
   1090.3672079967091        3.2247314591427645        34.114095488238469     
   1039.2567940454862        2.0507358874124915        32.595513525453420     
   990.92332509383505       0.97816307801352165        31.125653829422401     
   945.56458107320373       -3.0729326468973689E-012   29.715564085978333     
   903.22190008018947      -0.89159099553319265        28.370885497509871     
   863.83437465003874       -1.7045798141817592        27.093520296413079     
   827.27827113869068       -2.4466530604064793        25.882885811304359     
   793.39461982055991       -3.1249874558659885        24.736822853888182     
   762.00789446606962       -3.7461459613192738        23.652234737455935     
   732.93824830541143       -4.3160498301546282        22.625525554888661     
   706.00922698455815       -4.8399950979457431        21.652893362841851     
   681.05238145796068       -5.3226930746274883        20.730520821379731     
   657.90980111495605       -5.7683220270169961        19.854694646481811     
   636.43528196793375       -6.1805823083979874        19.021876420705066     
   616.49462193188663       -6.5627504713962361        18.228740689876695     
   597.96537687665432       -6.9177299702967856        17.472191450411998     
   580.73630060135702       -7.2480973323628808        16.749364685153449     
   564.70661574770588       -7.5561434372887613        16.057622176124987     
   549.78521078573294       -7.8439099779746559        15.394540127004618     
   535.88982318051592       -8.1132214074107196        14.757894953771515     
   522.94624542638257       -8.3657127847952122        14.145647793904297     
   510.88757513778484       -8.6028539693833110        13.555928731874353     
   499.65352026692250       -8.8259706044806734        12.987021363229887     
   489.18976402717686       -9.0362623059096965        12.437348066485479     
   479.44739004247867       -9.2348184309616190        11.905456183137671     
   470.38236580205614       -9.4226317622448015        11.390005194924681     
   461.95508112599128       -9.6006103998765759        10.889754915602561     
   454.12993766730597       -9.7695881172200565        10.403554669358488     
   446.87498524065609       -9.9303334007976538        9.9303334007945701     
   440.16160080901079       -10.083557364423234        9.4690906461867232     
   433.96420616713641       -10.229920700918862        9.0188882883282382     
   428.26002066174192       -10.370039811759714        8.5788430148836845     
   423.02884563596029       -10.504492235273673        8.1481194008787892     
   418.25287765106123       -10.633821477236781        7.7259235384266232     
   413.91654790314817       -10.758541333486429        7.3114971401543043     
   410.00638560714032       -10.879139782183787        6.9041120464514822     
   406.51090345982192       -10.996082513293482        6.5030650702117700     
   403.42050361676883       -11.109816154447465        6.1076731159113713     
   400.72740292553448       -11.220771245395875        5.7172685124820113     
   398.42557645197286       -11.329365007527814        5.3311945013560997     
   396.51071862156113       -11.436003950310255        4.9488008221910178     
   394.98022157724415       -11.541086352810947        4.5694393390285599     
   393.83317063460629       -11.645004655635395        4.1924596489295389     
   393.07035699946101       -11.748147796532193        3.8172046133461066     
   392.69430820834447       -11.850903521539827        3.4430057495437438     
   392.70933706559003       -11.953660702809859        3.0691784151217552     
   393.12161018924508       -12.056811694110021        2.6950167129351934     
   393.93923765056837       -12.160754755457633        2.3197880362790433     
   395.17238560800973       -12.265896579340158        1.9427271647949627     
   396.83341430756411       -12.372654952525851        1.5630298098782556     
   398.93704436012501       -12.481461589532815        1.1798454940035239     
   401.50055482774837       -12.592765176372964       0.79226963087228996     
   404.54401737160026       -12.707034666158401       0.39933465203817492     
   408.09057155410790       -12.824762871443468       -2.6524573050236535E-012
   412.16674736806215       -12.946470401594738      -0.40685922316559414     
   416.80284220947556       -13.072709996728197      -0.82246519955038322     
   422.03336084304078       -13.204071312336024       -1.2481522238945377     
   427.89752845164526       -13.341186209856998       -1.6853837616279383     
   434.43988863149389       -13.484734606884942       -2.1357721436393842     
   441.71100019577239       -13.635450934524377       -2.6011013776143170     
   449.76824886021444       -13.794131235589530       -3.0833536397162424     
   458.67679223335233       -13.961640911263535       -3.5847401051405048     
   468.51065886806612       -14.138923078335209       -4.1077368795265397     
   479.35402414913693       -14.327007423186295       -4.6551268998718900     
   491.30268694691131       -14.527019315318640       -5.2300487719684314     
   504.46577029870372       -14.740188746172656       -5.8360535795786719     
   518.96766523571955       -14.967858347815149       -6.4771706987894806     
   534.95022645742529       -15.211489258208349       -7.1579835089610784     
   552.57520717905902       -15.472662838543954       -7.8837154876894884     
   572.02688034050789       -15.753075064376961       -8.6603263029880786     
   593.51472157341902       -16.054518576816395       -9.4946158188466434     
   617.27590472802842       -16.378844543516468       -10.394330818796831     
   643.57714901193435       -16.727892117399549       -11.368263743766338     
   672.71510294759616       -17.103366628242487       -12.426323227492315     
   705.01386869090356       -17.506637634338965       -13.579540120333828     
   740.81733260666545       -17.938413257673520       -14.839946043341660     
   780.47249733233571       -18.398226497694086       -16.220218546884514     
   824.29780098874346       -18.883642158601791       -17.732920324426562     
   872.52732837334690       -19.389063067347362       -19.389063067357394     
   925.21812076115157       -19.903994889327848       -21.195601747522662     
   982.10488221883531       -20.410656211450387       -23.151345024099587     
   1042.3883597723254       -20.880973398380590       -25.240760913082614     
   1104.4595555386711       -21.273415335165520       -27.425521793647849     
   1165.6063253008697       -21.530958485580708       -29.634821989985447     
   1221.8334477516767       -21.582688114876273       -31.757961156337700     
   1268.0295514764086       -21.352394520976585       -33.645989971655510     
   1298.7302229490933       -20.776139278443381       -35.130532963597680     
   1309.4890367328981       -19.825296219525736       -36.062079948687838     
   1298.3661445364112       -18.524083508231119       -36.355560898134222     
   1266.6886477308083       -16.949121624789093       -36.018716892701086     
   1218.5640008960065       -15.208745303252863       -35.145336742469219     
   1159.4731368067874       -13.413689786070137       -33.879113091325500     
   1094.7882852972323       -11.654314700897812       -32.371104390925034     
   1028.8405448608426       -9.9913280264084392       -30.750145781425246     
   964.63380375551685       -8.4575703368005666       -29.111148043067150     
   903.97883989276158       -7.0649513043311369       -27.516168613004606     
   847.78933143313009       -5.8119583305519580       -26.001206905019323     
   796.37937354616406       -4.6896352699182007       -24.583929013414192     
   749.69847267523699       -3.6856309836266177       -23.270158205451015     
   707.49516839805437       -2.7866505155057646       -22.058610196529411     
   669.42206634889430       -1.9797976140175950       -20.944071066955143     
   635.09914697014858       -1.2532230919391507       -19.919410634291811     
   604.14964760604857      -0.59636993490214518       -18.976799028091136     
   576.21884623934670        5.6258971747733065E-012  -18.108406761111752     
   550.98261904853462       0.54388754501921177       -17.306782303170632     
   528.15012371084947        1.0421836247287597       -16.565034358710157     
   507.46327251314051        1.5008088717620001       -15.876899459488174     
   488.69458213742126        1.9248484937760357       -15.236744749696015     
   471.64432012190645        2.3186747510590688       -14.639536221507614     
   456.13746397490047        2.6860544233704902       -14.080790396144501     
   442.02074851072126        3.0302412124579341       -13.556519894994343     
   429.15993653450909        3.3540542317928130       -13.063178754304582     
   417.43736781108532        3.6599442044573816       -12.597610581076518     
   406.74979694840903        3.9500490783477242       -12.157001019451377     
   397.00650762989522        4.2262406717066732       -11.738835056014397     
   388.12767965201181        4.4901637881714960       -11.340859167306634     
   380.04298115742779        4.7432690449336636       -10.961048036512585     
   372.69035815853385        4.9868404679710565       -10.597575436707048     
   366.01499508330409        5.2220187369542543       -10.248788833082497     
   359.96842258719516        5.4498208135287163       -9.9131872586924779     
   354.50775166733553        5.6711565602988356       -9.5894020449571222     
   349.59501586926939        5.8868428521430145       -9.2761800262289800     
   345.19660593252485        6.0976155939025531       -8.9723688794678971     
   341.28278351162305        6.3041399863214833       -8.6769043012858678     
   337.82726261708910        6.5070193228542328       -8.3887987630928702     
   334.80684915691961        6.7068025513767964       -8.1071316198060508     
   332.20113044611480        6.9039907950327981       -7.8310403782678693     
   329.99220781876579        7.0990429938224944       -7.5597129582310076     
   328.16446655289667        7.2923808017826106       -7.2923808017773286     
   326.70437823039191        7.4843928526251915       -7.0283127067036055     