 VARIABLES = "x_1", "x_2", "x_3"
 ZONE F = POINT , I =         201  , J =         101
   2979.9532555924252        0.0000000000000000        0.0000000000000000     
   2979.9532555924252        0.0000000000000000        0.0000000000000000     
   2979.9532555924252        0.0000000000000000        0.0000000000000000     
   2979.9532555924252        0.0000000000000000        0.0000000000000000     
   2979.9532555924252        0.0000000000000000        0.0000000000000000     
   2979.9532555924252        0.0000000000000000        0.0000000000000000     
   2979.9532555924252        0.0000000000000000        0.0000000000000000     
   2979.9532555924252        0.0000000000000000        0.0000000000000000     
   2979.9532555924252        0.0000000000000000        0.0000000000000000     
   2979.9532555924252        0.0000000000000000        0.0000000000000000     
   2979.9532555924252        0.0000000000000000        0.0000000000000000     
   2979.9532555924252        0.0000000000000000        0.0000000000000000     
   2979.9532555924252        0.0000000000000000        0.0000000000000000     
   2979.9532555924252        0.0000000000000000        0.0000000000000000     
   2979.9532555924252        0.0000000000000000        0.0000000000000000     
   2979.9532555924252        0.0000000000000000        0.0000000000000000     
   2979.9532555924252        0.0000000000000000        0.0000000000000000     
   2979.9532555924252        0.0000000000000000        0.0000000000000000     
   2979.9532555924252        0.0000000000000000        0.0000000000000000     
   2979.9532555924252        0.0000000000000000        0.0000000000000000     
   2979.9532555924252        0.0000000000000000        0.0000000000000000     
   2979.9532555924252        0.0000000000000000        0.0000000000000000     
   2979.9532555924252        0.0000000000000000        0.0000000000000000     
   2979.9532555924252        0.0000000000000000        0.0000000000000000     
   2979.9532555924252        0.0000000000000000        0.0000000000000000     
   2979.9532555924252        0.0000000000000000        0.0000000000000000     
   2979.9532555924252        0.0000000000000000        0.0000000000000000     
   2979.9532555924252        0.0000000000000000        0.0000000000000000     
   2979.9532555924252        0.0000000000000000        0.0000000000000000     
   2979.9532555924252        0.0000000000000000        0.0000000000000000     
   2979.9532555924252        0.0000000000000000        0.0000000000000000     
   2979.9532555924252        0.0000000000000000        0.0000000000000000     
   2979.9532555924252        0.0000000000000000        0.0000000000000000     
   2979.9532555924252        0.0000000000000000        0.0000000000000000     
   2979.9532555924252        0.0000000000000000        0.0000000000000000     
   2979.9532555924252        0.0000000000000000        0.0000000000000000     
   2979.9532555924252        0.0000000000000000        0.0000000000000000     
   2979.9532555924252        0.0000000000000000        0.0000000000000000     
   2979.9532555924252        0.0000000000000000        0.0000000000000000     
   2979.9532555924252        0.0000000000000000        0.0000000000000000     
   2979.9532555924252        0.0000000000000000        0.0000000000000000     
   2979.9532555924252        0.0000000000000000        0.0000000000000000     
   2979.9532555924252        0.0000000000000000        0.0000000000000000     
   2979.9532555924252        0.0000000000000000        0.0000000000000000     
   2979.9532555924252        0.0000000000000000        0.0000000000000000     
   2979.9532555924252        0.0000000000000000        0.0000000000000000     
   2979.9532555924252        0.0000000000000000        0.0000000000000000     
   2979.9532555924252        0.0000000000000000        0.0000000000000000     
   2979.9532555924252        0.0000000000000000        0.0000000000000000     
   2979.9532555924252        0.0000000000000000        0.0000000000000000     
   2979.9532555924252       -0.0000000000000000        0.0000000000000000     
   2979.9532555924252       -0.0000000000000000        0.0000000000000000     
   2979.9532555924252       -0.0000000000000000        0.0000000000000000     
   2979.9532555924252       -0.0000000000000000        0.0000000000000000     
   2979.9532555924252       -0.0000000000000000        0.0000000000000000     
   2979.9532555924252       -0.0000000000000000        0.0000000000000000     
   2979.9532555924252       -0.0000000000000000        0.0000000000000000     
   2979.9532555924252       -0.0000000000000000        0.0000000000000000     
   2979.9532555924252       -0.0000000000000000        0.0000000000000000     
   2979.9532555924252       -0.0000000000000000        0.0000000000000000     
   2979.9532555924252       -0.0000000000000000        0.0000000000000000     
   2979.9532555924252       -0.0000000000000000        0.0000000000000000     
   2979.9532555924252       -0.0000000000000000        0.0000000000000000     
   2979.9532555924252       -0.0000000000000000        0.0000000000000000     
   2979.9532555924252       -0.0000000000000000        0.0000000000000000     
   2979.9532555924252       -0.0000000000000000        0.0000000000000000     
   2979.9532555924252       -0.0000000000000000        0.0000000000000000     
   2979.9532555924252       -0.0000000000000000        0.0000000000000000     
   2979.9532555924252       -0.0000000000000000        0.0000000000000000     
   2979.9532555924252       -0.0000000000000000        0.0000000000000000     
   2979.9532555924252       -0.0000000000000000        0.0000000000000000     
   2979.9532555924252       -0.0000000000000000        0.0000000000000000     
   2979.9532555924252       -0.0000000000000000        0.0000000000000000     
   2979.9532555924252       -0.0000000000000000        0.0000000000000000     
   2979.9532555924252       -0.0000000000000000        0.0000000000000000     
   2979.9532555924252       -0.0000000000000000        0.0000000000000000     
   2979.9532555924252       -0.0000000000000000        0.0000000000000000     
   2979.9532555924252       -0.0000000000000000        0.0000000000000000     
   2979.9532555924252       -0.0000000000000000        0.0000000000000000     
   2979.9532555924252       -0.0000000000000000        0.0000000000000000     
   2979.9532555924252       -0.0000000000000000        0.0000000000000000     
   2979.9532555924252       -0.0000000000000000        0.0000000000000000     
   2979.9532555924252       -0.0000000000000000        0.0000000000000000     
   2979.9532555924252       -0.0000000000000000        0.0000000000000000     
   2979.9532555924252       -0.0000000000000000        0.0000000000000000     
   2979.9532555924252       -0.0000000000000000        0.0000000000000000     
   2979.9532555924252       -0.0000000000000000        0.0000000000000000     
   2979.9532555924252       -0.0000000000000000        0.0000000000000000     
   2979.9532555924252       -0.0000000000000000        0.0000000000000000     
   2979.9532555924252       -0.0000000000000000        0.0000000000000000     
   2979.9532555924252       -0.0000000000000000        0.0000000000000000     
   2979.9532555924252       -0.0000000000000000        0.0000000000000000     
   2979.9532555924252       -0.0000000000000000        0.0000000000000000     
   2979.9532555924252       -0.0000000000000000        0.0000000000000000     
   2979.9532555924252       -0.0000000000000000        0.0000000000000000     
   2979.9532555924252       -0.0000000000000000        0.0000000000000000     
   2979.9532555924252       -0.0000000000000000        0.0000000000000000     
   2979.9532555924252       -0.0000000000000000        0.0000000000000000     
   2979.9532555924252       -0.0000000000000000        0.0000000000000000     
   2979.9532555924252       -0.0000000000000000        0.0000000000000000     
   2979.9532555924252       -0.0000000000000000       -0.0000000000000000     
   2979.9532555924252       -0.0000000000000000       -0.0000000000000000     
   2979.9532555924252       -0.0000000000000000       -0.0000000000000000     
   2979.9532555924252       -0.0000000000000000       -0.0000000000000000     
   2979.9532555924252       -0.0000000000000000       -0.0000000000000000     
   2979.9532555924252       -0.0000000000000000       -0.0000000000000000     
   2979.9532555924252       -0.0000000000000000       -0.0000000000000000     
   2979.9532555924252       -0.0000000000000000       -0.0000000000000000     
   2979.9532555924252       -0.0000000000000000       -0.0000000000000000     
   2979.9532555924252       -0.0000000000000000       -0.0000000000000000     
   2979.9532555924252       -0.0000000000000000       -0.0000000000000000     
   2979.9532555924252       -0.0000000000000000       -0.0000000000000000     
   2979.9532555924252       -0.0000000000000000       -0.0000000000000000     
   2979.9532555924252       -0.0000000000000000       -0.0000000000000000     
   2979.9532555924252       -0.0000000000000000       -0.0000000000000000     
   2979.9532555924252       -0.0000000000000000       -0.0000000000000000     
   2979.9532555924252       -0.0000000000000000       -0.0000000000000000     
   2979.9532555924252       -0.0000000000000000       -0.0000000000000000     
   2979.9532555924252       -0.0000000000000000       -0.0000000000000000     
   2979.9532555924252       -0.0000000000000000       -0.0000000000000000     
   2979.9532555924252       -0.0000000000000000       -0.0000000000000000     
   2979.9532555924252       -0.0000000000000000       -0.0000000000000000     
   2979.9532555924252       -0.0000000000000000       -0.0000000000000000     
   2979.9532555924252       -0.0000000000000000       -0.0000000000000000     
   2979.9532555924252       -0.0000000000000000       -0.0000000000000000     
   2979.9532555924252       -0.0000000000000000       -0.0000000000000000     
   2979.9532555924252       -0.0000000000000000       -0.0000000000000000     
   2979.9532555924252       -0.0000000000000000       -0.0000000000000000     
   2979.9532555924252       -0.0000000000000000       -0.0000000000000000     
   2979.9532555924252       -0.0000000000000000       -0.0000000000000000     
   2979.9532555924252       -0.0000000000000000       -0.0000000000000000     
   2979.9532555924252       -0.0000000000000000       -0.0000000000000000     
   2979.9532555924252       -0.0000000000000000       -0.0000000000000000     
   2979.9532555924252       -0.0000000000000000       -0.0000000000000000     
   2979.9532555924252       -0.0000000000000000       -0.0000000000000000     
   2979.9532555924252       -0.0000000000000000       -0.0000000000000000     
   2979.9532555924252       -0.0000000000000000       -0.0000000000000000     
   2979.9532555924252       -0.0000000000000000       -0.0000000000000000     
   2979.9532555924252       -0.0000000000000000       -0.0000000000000000     
   2979.9532555924252       -0.0000000000000000       -0.0000000000000000     
   2979.9532555924252       -0.0000000000000000       -0.0000000000000000     
   2979.9532555924252       -0.0000000000000000       -0.0000000000000000     
   2979.9532555924252       -0.0000000000000000       -0.0000000000000000     
   2979.9532555924252       -0.0000000000000000       -0.0000000000000000     
   2979.9532555924252       -0.0000000000000000       -0.0000000000000000     
   2979.9532555924252       -0.0000000000000000       -0.0000000000000000     
   2979.9532555924252       -0.0000000000000000       -0.0000000000000000     
   2979.9532555924252       -0.0000000000000000       -0.0000000000000000     
   2979.9532555924252       -0.0000000000000000       -0.0000000000000000     
   2979.9532555924252       -0.0000000000000000       -0.0000000000000000     
   2979.9532555924252        0.0000000000000000       -0.0000000000000000     
   2979.9532555924252        0.0000000000000000       -0.0000000000000000     
   2979.9532555924252        0.0000000000000000       -0.0000000000000000     
   2979.9532555924252        0.0000000000000000       -0.0000000000000000     
   2979.9532555924252        0.0000000000000000       -0.0000000000000000     
   2979.9532555924252        0.0000000000000000       -0.0000000000000000     
   2979.9532555924252        0.0000000000000000       -0.0000000000000000     
   2979.9532555924252        0.0000000000000000       -0.0000000000000000     
   2979.9532555924252        0.0000000000000000       -0.0000000000000000     
   2979.9532555924252        0.0000000000000000       -0.0000000000000000     
   2979.9532555924252        0.0000000000000000       -0.0000000000000000     
   2979.9532555924252        0.0000000000000000       -0.0000000000000000     
   2979.9532555924252        0.0000000000000000       -0.0000000000000000     
   2979.9532555924252        0.0000000000000000       -0.0000000000000000     
   2979.9532555924252        0.0000000000000000       -0.0000000000000000     
   2979.9532555924252        0.0000000000000000       -0.0000000000000000     
   2979.9532555924252        0.0000000000000000       -0.0000000000000000     
   2979.9532555924252        0.0000000000000000       -0.0000000000000000     
   2979.9532555924252        0.0000000000000000       -0.0000000000000000     
   2979.9532555924252        0.0000000000000000       -0.0000000000000000     
   2979.9532555924252        0.0000000000000000       -0.0000000000000000     
   2979.9532555924252        0.0000000000000000       -0.0000000000000000     
   2979.9532555924252        0.0000000000000000       -0.0000000000000000     
   2979.9532555924252        0.0000000000000000       -0.0000000000000000     
   2979.9532555924252        0.0000000000000000       -0.0000000000000000     
   2979.9532555924252        0.0000000000000000       -0.0000000000000000     
   2979.9532555924252        0.0000000000000000       -0.0000000000000000     
   2979.9532555924252        0.0000000000000000       -0.0000000000000000     
   2979.9532555924252        0.0000000000000000       -0.0000000000000000     
   2979.9532555924252        0.0000000000000000       -0.0000000000000000     
   2979.9532555924252        0.0000000000000000       -0.0000000000000000     
   2979.9532555924252        0.0000000000000000       -0.0000000000000000     
   2979.9532555924252        0.0000000000000000       -0.0000000000000000     
   2979.9532555924252        0.0000000000000000       -0.0000000000000000     
   2979.9532555924252        0.0000000000000000       -0.0000000000000000     
   2979.9532555924252        0.0000000000000000       -0.0000000000000000     
   2979.9532555924252        0.0000000000000000       -0.0000000000000000     
   2979.9532555924252        0.0000000000000000       -0.0000000000000000     
   2979.9532555924252        0.0000000000000000       -0.0000000000000000     
   2979.9532555924252        0.0000000000000000       -0.0000000000000000     
   2979.9532555924252        0.0000000000000000       -0.0000000000000000     
   2979.9532555924252        0.0000000000000000       -0.0000000000000000     
   2979.9532555924252        0.0000000000000000       -0.0000000000000000     
   2979.9532555924252        0.0000000000000000       -0.0000000000000000     
   2979.9532555924252        0.0000000000000000       -0.0000000000000000     
   2979.9532555924252        0.0000000000000000       -0.0000000000000000     
   2979.9532555924252        0.0000000000000000       -0.0000000000000000     
   2979.9532555924252        0.0000000000000000       -0.0000000000000000     
   2979.9532555924252        0.0000000000000000       -0.0000000000000000     
   2979.9532555924252        0.0000000000000000       -0.0000000000000000     
   2979.9532555924252        0.0000000000000000        0.0000000000000000     
   2968.1904987475741        93.279144280994544        0.0000000000000000     
   2968.8625109340624        93.254225067042995        2.9306320866236319     
   2969.5389923868438        93.137373693675940        5.8597068748168413     
   2970.2188220037906        92.928627871121122        8.7843416471242435     
   2970.9008919547209        92.628116254890259        11.701652353114916     
   2971.5841107679198        92.236058760553760        14.608756544532328     
   2972.2674063292202        91.752766775849040        17.502776344275134     
   2972.9497287804252        91.178643266912431        20.380841444788150     
   2973.6300533042181        90.514182775690671        23.240092131147119     
   2974.3073827832000        89.759971305884605        26.077682323847480     
   2974.9807503212555        88.916686095100061        28.890782636058631     
   2975.6492216161055        87.985095271225902        31.676583439884293     
   2976.3118971725662        86.966057391424911        34.432297935977715     
   2976.9679143469007        85.860520862509020        37.155165220701676     
   2977.6164492134194        84.669523241866685        39.842453344896022     
   2978.2567182454600        83.394190418523038        42.491462358225192     
   2978.8879798038274        82.035735674329587        45.099527333022621     
   2979.5095354267637        80.595458625703486        47.664021361529144     
   2980.1207309166443        79.074744046759577        50.182358520442001     
   2980.7209572196384        77.475060575098851        52.651996796744307     
   2981.3096510957198        75.797959301929879        55.070440968876390     
   2981.8862955775558        74.045072248604384        57.435245437435867     
   2982.4504202179728        72.218110732038028        59.744016999754372     
   2983.0016011268258        70.318863621860601        61.994417562889751     
   2983.5394607992930        68.349195492494019        64.184166789797473     
   2984.0636677387283        66.311044673687320        66.311044673694184     
   2984.5739358783389        64.206421203343751        68.372894035904821     
   2985.0700238070449        62.037404686753135        70.367622942783143     
   2985.5517338059117        59.806142066592365        72.293207037615716     
   2986.0189107025926        57.514845308274033        74.147691783755860     
   2986.4714405521254        55.165789005409529        75.929194615583043     
   2986.9092491533506        52.761307910304936        77.635906994243115     
   2987.3323004110466        50.303794394527358        79.266096365491109     
   2987.7405945546257        47.795695844664280        80.818108017327262     
   2988.1341662249297        45.239511998450297        82.290366835485571     
   2988.5130824412586        42.637792226453946        83.681378955199321     
   2988.8774404612996        39.993132764504715        84.989733308026501     
   2989.2273655470549        37.308173901996192        86.214103062865448     
   2989.5630086502006        34.585597131128360        87.353246960626151     
   2989.8845440306154        31.828122262052563        88.406010542343381     
   2990.1921668219311        29.038504508757338        89.371327270817005     
   2990.4860905580854        26.219531550386154        90.248219546148604     
   2990.7665446748556        23.374020572510464        91.035799615801494     
   2991.0337720002240        20.504815292696577        91.733270380047031     
   2991.2880262473104        17.614782974505800        92.339926093871952     
   2991.5295695233108        14.706811433856206        92.855152966605871     
   2991.7586698675964        11.783806041454774        93.278429660688531     
   2991.9755988316847        8.8486867247837893        93.609327691127362     
   2992.1806291133857        5.9043849728970237        93.847511727304934     
   2992.3740322568360        2.9538408470533337        93.992739798873259     
   2992.5560764296101       -9.7253254288505519E-012   94.044863407530201     
   2992.7270242874170       -2.9541892935795873        94.003827546501739     
   2992.8871309362194       -5.9057790928788094        93.869670629563359     
   2993.0366420009354       -8.8518247312126679        93.642524331420177     
   2993.1757918090243       -11.789387738374678        93.322613341230053     
   2993.3048016966100       -14.715538743506611        92.910255031005690     
   2993.4238784438535       -17.627360356768833        92.405859040560713     
   2993.5332128455830       -20.521950028320649        91.809926780586508     
   2993.6329784222617       -23.396422883234870        91.123050855351082     
   2993.7233302756085       -26.247914531077363        90.345914406411183     
   2993.8044040922950       -29.073583848968795        89.479290378617748     
   2993.8763152983556       -31.870615737013072        88.524040709582877     
   2993.9391583660895       -34.636223845024489        87.481115443659021     
   2993.9930062744706       -37.367653269512878        86.351551771366644     
   2994.0379101232425       -40.062183219895104        85.136472995091168     
   2994.0738989001547       -42.717129652891444        83.837087421762476     
   2994.1009794000606       -45.329847874038116        82.454687183126680     
   2994.1191362938471       -47.897735105203168        80.990646984124922     
   2994.1283323445628       -50.418233016934472        79.446422779810590     
   2994.1285087673932       -52.888830224394987        77.823550381161979     
   2994.1195857296116       -55.307064745556225        76.123643990089064     
   2994.1014629860074       -57.670526420224249        74.348394663886026     
   2994.0740206448090       -59.976859288368445        72.499568709351337     
   2994.0371200586255       -62.223763926111467        70.579006006782322     
   2993.9906048344915       -64.408999737621414        68.588618264053636     
   2993.9343019567063       -66.530387201027921        66.530387201007258     
   2993.8680230158129       -68.585810066361233        64.406362664419461     
   2993.7915655367224       -70.573217503392556        62.218660673862125     
   2993.7047143987465       -72.490626197135242        59.969461398847677     
   2993.6072433400705       -74.336122388651717        57.661007067734083     
   2993.4989165389684       -76.107863858701521        55.295599808969605     
   2993.3794902639697       -77.804081851665728        52.875599425376599     
   2993.2487145850200       -79.423082937089916        50.403421102307725     
   2993.1063351376233       -80.963250806107126        47.881533050654888     
   2992.9520949318962       -82.423047999932209        45.312454085852082     
   2992.7857361984738       -83.801017567563377        42.698751144184705     
   2992.6070022631834       -85.095784649784207        40.043036737899776     
   2992.4156394424786       -86.306057986533119        37.347966350801528     
   2992.2113989517038       -87.430631344697233        34.616235776215170     
   2991.9940388183081       -88.468384863392657        31.850578399404245     
   2991.7633257923239       -89.418286313819152        29.053762426734735     
   2991.5190372464785       -90.279392270815677        26.228588064089305     
   2991.2609630585603       -91.050849193306178        23.377884647245580     
   2990.9889074687412       -91.731894410899116        20.504507727142386     
   2990.7026909048527       -92.321857014003015        17.611336113166203     
   2990.4021517687233       -92.820158644931297        14.701268877793403     
   2990.0871481769946       -93.226314187602455        11.777222326122599     
   2989.7575596499914       -93.539932353588767        8.8421269340225610     
   2989.4132887425280       -93.760716162432004        5.8989242588042261     
   2989.0542626107326       -93.888463314324923        2.9505638264981435     
   2988.6804345092683       -93.923066453452748       -1.9425460433222247E-011
   2988.2917852135897       -93.864513320499526       -2.9498111676593202     
   2987.8883243621158       -93.712886793045271       -5.8959150899832347     
   2987.4700917135469       -93.468364812817342       -8.8353618096496245     
   2987.0371583147444       -93.131220199002485       -11.765209161687959     
   2986.5896275749897       -92.701820347084336       -14.682525932759331     
   2986.1276362426211       -92.180626812932189       -17.584395011490152     
   2985.6513552804254       -91.568194782139557       -20.467916524914038     
   2985.1609906364183       -90.865172424886495       -23.330210956021446     
   2984.6567839069689       -90.072300136880287       -26.168422237403636     
   2984.1390128895014       -89.190409667211057       -28.979720815981135     
   2983.6079920223506       -88.220423134244442       -31.761306683832277     
   2983.0640727096311       -87.163351930955514       -34.510412370181598     
   2982.5076435292922       -86.020295521390011       -37.224305889672522     
   2981.9391303228599       -84.792440130217130       -39.900293642132922     
   2981.3589961656658       -83.481057327610372       -42.535723259145868     
   2980.7677412167045       -82.087502511960039       -45.127986392861381     
   2980.1659024475357       -80.613213293177267       -47.674521442625306     
   2979.5540532500377       -79.059707779601013       -50.172816215163074     
   2978.9328029230605       -77.428582771753369       -52.620410514231096     
   2978.3027960384343       -75.721511866418055       -55.014898655844057     
   2977.6647116870286       -73.940243474725008       -57.353931905393708     
   2977.0192626059784       -72.086598758124197       -59.635220833201124     
   2976.3671941884236       -70.162469486310883       -61.856537585278360     
   2975.7092833775114       -68.169815821330403       -64.015718066328390     
   2975.0463374466894       -66.110664032235817       -66.110664032270023     
   2974.3791926686699       -63.987104144800377       -68.139345089846202     
   2973.7087128757503       -61.801287530894548       -70.099800601151358     
   2973.0357879145031       -59.555424442225622       -71.990141491198628     
   2972.3613319981719       -57.251781493205556       -73.808551956937407     
   2971.6862819604207       -54.892679097759661       -75.553291076425026     
   2971.0115954143635       -52.480488864912232       -77.222694317150868     
   2970.3382488211896       -50.017630957993283       -78.815174942807218     
   2969.6672354728689       -47.506571422287323       -80.329225318093577     
   2968.9995633938615       -44.949819485913011       -81.763418111432330     
   2968.3362531668931       -42.349924838656626       -83.116407395758458     
   2967.6783356882634       -39.709474893408469       -84.386929647824687     
   2967.0268498583127       -37.031092034745534       -85.573804646734501     
   2966.3828402130143       -34.317430859089917       -86.675936272675315     
   2965.7473545028311       -31.571175410729911       -87.692313207074491     
   2965.1214412252630       -28.795036417840240       -88.622009535636039     
   2964.5061471176964       -25.991748532461870       -89.464185255940237     
   2963.9025146173899       -23.164067578219576       -90.218086691493014     
   2963.3115792956041       -20.314767809350066       -90.883046814303924     
   2962.7343672730844       -17.446639184405285       -91.458485478243020     
   2962.1718926242293       -14.562484657766021       -91.943909565580839     
   2961.6251547774668       -11.665117491872561       -92.338913049249697     
   2961.0951359194128       -8.7573585928327713       -92.643176973477139     
   2960.5827984105913       -5.8420338718237605       -92.856469355537087     
   2960.0890822204756       -2.9219716344508915       -92.978645011432292     
   2959.6149023897619        2.8896120330738618E-011  -93.009645308373521     
   2959.1611465277870        2.9210556479631196       -92.949497846947423     
   2958.7286723530428        5.8383751776416775       -92.798316075869593     
   2958.3183052847303        8.7491461915645914       -92.556298842204129     
   2957.9308360933082        11.650566473738518       -92.223729879892872     
   2957.5670186179073        14.539846401334565       -91.800977239378184     
   2957.2275675584447        17.414211320275598       -91.288492661023795     
   2956.9131563501824        20.270903884535780       -90.686810894940351     
   2956.6244151283427        23.107186359148322       -89.996548969703468     
   2956.3619287902534        25.920342887106042       -89.218405412316955     
   2956.1262351623759        28.707681720523954       -88.353159421623971     
   2955.9178232792824        31.466537416589347       -87.401669997199107     
   2955.7371317815432        34.194272998974384       -86.364875025577376     
   2955.5845474391413        36.888282085507349       -85.243790325481626     
   2955.4604038068146        39.545990983003982       -84.039508653508790     
   2955.3649800174057        42.164860750245552       -82.753198671523791     
   2955.2984997189537        44.742389230147602       -81.386103876793399     
   2955.2611301609340        47.276113052206021       -79.939541495669758     
   2955.2529814346335        49.763609606317814       -78.414901341410484     
   2955.2741058722404        52.202498989069930       -76.813644636495695     
   2955.3244976087963        54.590445923553453       -75.137302799582727     
   2955.4040923106450        56.925161653709118       -73.387476197017321     
   2955.5127670735665        59.204405814127654       -71.565832858611870     
   2955.6503404931914        61.425988276131108       -69.674107157193305     
   2955.8165729097723        63.587770970833994       -67.714098451233980     
   2956.0111668287987        65.687669689742862       -65.687669689695284     
   2956.2337675183212        67.723655863284407       -63.596745978050876     