 VARIABLES = "x_1", "x_2", "x_3"
 ZONE F = POINT , I =         201  , J =         101
   959.81767580899600        0.0000000000000000        0.0000000000000000     
   959.81720557088977        0.0000000000000000        0.0000000000000000     
   959.81671040385925        0.0000000000000000        0.0000000000000000     
   959.81619226221335        0.0000000000000000        0.0000000000000000     
   959.81565319092692        0.0000000000000000        0.0000000000000000     
   959.81509531756853        0.0000000000000000        0.0000000000000000     
   959.81452084390196        0.0000000000000000        0.0000000000000000     
   959.81393203719529        0.0000000000000000        0.0000000000000000     
   959.81333122127205        0.0000000000000000        0.0000000000000000     
   959.81272076733956        0.0000000000000000        0.0000000000000000     
   959.81210308462880        0.0000000000000000        0.0000000000000000     
   959.81148061088550        0.0000000000000000        0.0000000000000000     
   959.81085580275044        0.0000000000000000        0.0000000000000000     
   959.81023112606215        0.0000000000000000        0.0000000000000000     
   959.80960904612607        0.0000000000000000        0.0000000000000000     
   959.80899201798513        0.0000000000000000        0.0000000000000000     
   959.80838247673182        0.0000000000000000        0.0000000000000000     
   959.80778282789686        0.0000000000000000        0.0000000000000000     
   959.80719543795794        0.0000000000000000        0.0000000000000000     
   959.80662262500164        0.0000000000000000        0.0000000000000000     
   959.80606664957429        0.0000000000000000        0.0000000000000000     
   959.80552970576366        0.0000000000000000        0.0000000000000000     
   959.80501391254052        0.0000000000000000        0.0000000000000000     
   959.80452130539823        0.0000000000000000        0.0000000000000000     
   959.80405382832055        0.0000000000000000        0.0000000000000000     
   959.80361332611164        0.0000000000000000        0.0000000000000000     
   959.80320153711807        0.0000000000000000        0.0000000000000000     
   959.80282008636868        0.0000000000000000        0.0000000000000000     
   959.80247047916464        0.0000000000000000        0.0000000000000000     
   959.80215409513869        0.0000000000000000        0.0000000000000000     
   959.80187218281446        0.0000000000000000        0.0000000000000000     
   959.80162585467792        0.0000000000000000        0.0000000000000000     
   959.80141608279132        0.0000000000000000        0.0000000000000000     
   959.80124369495547        0.0000000000000000        0.0000000000000000     
   959.80110937144502        0.0000000000000000        0.0000000000000000     
   959.80101364232587        0.0000000000000000        0.0000000000000000     
   959.80095688536198        0.0000000000000000        0.0000000000000000     
   959.80093932452701        0.0000000000000000        0.0000000000000000     
   959.80096102911830        0.0000000000000000        0.0000000000000000     
   959.80102191348624        0.0000000000000000        0.0000000000000000     
   959.80112173737018        0.0000000000000000        0.0000000000000000     
   959.80126010684671        0.0000000000000000        0.0000000000000000     
   959.80143647588500        0.0000000000000000        0.0000000000000000     
   959.80165014849877        0.0000000000000000        0.0000000000000000     
   959.80190028149377        0.0000000000000000        0.0000000000000000     
   959.80218588779371        0.0000000000000000        0.0000000000000000     
   959.80250584033399        0.0000000000000000        0.0000000000000000     
   959.80285887650962        0.0000000000000000        0.0000000000000000     
   959.80324360315478        0.0000000000000000        0.0000000000000000     
   959.80365850204043        0.0000000000000000        0.0000000000000000     
   959.80410193586488       -0.0000000000000000        0.0000000000000000     
   959.80457215471188       -0.0000000000000000        0.0000000000000000     
   959.80506730295645       -0.0000000000000000        0.0000000000000000     
   959.80558542658559       -0.0000000000000000        0.0000000000000000     
   959.80612448090881       -0.0000000000000000        0.0000000000000000     
   959.80668233862491       -0.0000000000000000        0.0000000000000000     
   959.80725679821717       -0.0000000000000000        0.0000000000000000     
   959.80784559263884       -0.0000000000000000        0.0000000000000000     
   959.80844639826046       -0.0000000000000000        0.0000000000000000     
   959.80905684403740       -0.0000000000000000        0.0000000000000000     
   959.80967452086713       -0.0000000000000000        0.0000000000000000     
   959.81029699109638       -0.0000000000000000        0.0000000000000000     
   959.81092179814016       -0.0000000000000000        0.0000000000000000     
   959.81154647617700       -0.0000000000000000        0.0000000000000000     
   959.81216855988021       -0.0000000000000000        0.0000000000000000     
   959.81278559414727       -0.0000000000000000        0.0000000000000000     
   959.81339514378965       -0.0000000000000000        0.0000000000000000     
   959.81399480314394       -0.0000000000000000        0.0000000000000000     
   959.81458220556567       -0.0000000000000000        0.0000000000000000     
   959.81515503277319       -0.0000000000000000        0.0000000000000000     
   959.81571102399437       -0.0000000000000000        0.0000000000000000     
   959.81624798489224       -0.0000000000000000        0.0000000000000000     
   959.81676379622706       -0.0000000000000000        0.0000000000000000     
   959.81725642221954       -0.0000000000000000        0.0000000000000000     
   959.81772391858874       -0.0000000000000000        0.0000000000000000     
   959.81816444022593       -0.0000000000000000        0.0000000000000000     
   959.81857624847839       -0.0000000000000000        0.0000000000000000     
   959.81895771801419       -0.0000000000000000        0.0000000000000000     
   959.81930734323498       -0.0000000000000000        0.0000000000000000     
   959.81962374422403       -0.0000000000000000        0.0000000000000000     
   959.81990567219054       -0.0000000000000000        0.0000000000000000     
   959.82015201440140       -0.0000000000000000        0.0000000000000000     
   959.82036179857312       -0.0000000000000000        0.0000000000000000     
   959.82053419671058       -0.0000000000000000        0.0000000000000000     
   959.82066852837647       -0.0000000000000000        0.0000000000000000     
   959.82076426337676       -0.0000000000000000        0.0000000000000000     
   959.82082102385459       -0.0000000000000000        0.0000000000000000     
   959.82083858578108       -0.0000000000000000        0.0000000000000000     
   959.82081687984089       -0.0000000000000000        0.0000000000000000     
   959.82075599170594       -0.0000000000000000        0.0000000000000000     
   959.82065616169587       -0.0000000000000000        0.0000000000000000     
   959.82051778383027       -0.0000000000000000        0.0000000000000000     
   959.82034140427299       -0.0000000000000000        0.0000000000000000     
   959.82012771917562       -0.0000000000000000        0.0000000000000000     
   959.81987757192962       -0.0000000000000000        0.0000000000000000     
   959.81959194983619       -0.0000000000000000        0.0000000000000000     
   959.81927198020821       -0.0000000000000000        0.0000000000000000     
   959.81891892592125       -0.0000000000000000        0.0000000000000000     
   959.81853418042613       -0.0000000000000000        0.0000000000000000     
   959.81811926224896       -0.0000000000000000        0.0000000000000000     
   959.81767580899600       -0.0000000000000000       -0.0000000000000000     
   959.81720557089000       -0.0000000000000000       -0.0000000000000000     
   959.81671040385947       -0.0000000000000000       -0.0000000000000000     
   959.81619226221335       -0.0000000000000000       -0.0000000000000000     
   959.81565319092692       -0.0000000000000000       -0.0000000000000000     
   959.81509531756831       -0.0000000000000000       -0.0000000000000000     
   959.81452084390185       -0.0000000000000000       -0.0000000000000000     
   959.81393203719517       -0.0000000000000000       -0.0000000000000000     
   959.81333122127216       -0.0000000000000000       -0.0000000000000000     
   959.81272076733956       -0.0000000000000000       -0.0000000000000000     
   959.81210308462892       -0.0000000000000000       -0.0000000000000000     
   959.81148061088561       -0.0000000000000000       -0.0000000000000000     
   959.81085580275044       -0.0000000000000000       -0.0000000000000000     
   959.81023112606215       -0.0000000000000000       -0.0000000000000000     
   959.80960904612596       -0.0000000000000000       -0.0000000000000000     
   959.80899201798513       -0.0000000000000000       -0.0000000000000000     
   959.80838247673182       -0.0000000000000000       -0.0000000000000000     
   959.80778282789686       -0.0000000000000000       -0.0000000000000000     
   959.80719543795817       -0.0000000000000000       -0.0000000000000000     
   959.80662262500175       -0.0000000000000000       -0.0000000000000000     
   959.80606664957418       -0.0000000000000000       -0.0000000000000000     
   959.80552970576366       -0.0000000000000000       -0.0000000000000000     
   959.80501391254063       -0.0000000000000000       -0.0000000000000000     
   959.80452130539823       -0.0000000000000000       -0.0000000000000000     
   959.80405382832032       -0.0000000000000000       -0.0000000000000000     
   959.80361332611176       -0.0000000000000000       -0.0000000000000000     
   959.80320153711807       -0.0000000000000000       -0.0000000000000000     
   959.80282008636868       -0.0000000000000000       -0.0000000000000000     
   959.80247047916464       -0.0000000000000000       -0.0000000000000000     
   959.80215409513869       -0.0000000000000000       -0.0000000000000000     
   959.80187218281446       -0.0000000000000000       -0.0000000000000000     
   959.80162585467781       -0.0000000000000000       -0.0000000000000000     
   959.80141608279132       -0.0000000000000000       -0.0000000000000000     
   959.80124369495513       -0.0000000000000000       -0.0000000000000000     
   959.80110937144502       -0.0000000000000000       -0.0000000000000000     
   959.80101364232587       -0.0000000000000000       -0.0000000000000000     
   959.80095688536210       -0.0000000000000000       -0.0000000000000000     
   959.80093932452701       -0.0000000000000000       -0.0000000000000000     
   959.80096102911853       -0.0000000000000000       -0.0000000000000000     
   959.80102191348624       -0.0000000000000000       -0.0000000000000000     
   959.80112173737007       -0.0000000000000000       -0.0000000000000000     
   959.80126010684694       -0.0000000000000000       -0.0000000000000000     
   959.80143647588500       -0.0000000000000000       -0.0000000000000000     
   959.80165014849911       -0.0000000000000000       -0.0000000000000000     
   959.80190028149400       -0.0000000000000000       -0.0000000000000000     
   959.80218588779371       -0.0000000000000000       -0.0000000000000000     
   959.80250584033433       -0.0000000000000000       -0.0000000000000000     
   959.80285887650962       -0.0000000000000000       -0.0000000000000000     
   959.80324360315467       -0.0000000000000000       -0.0000000000000000     
   959.80365850204055       -0.0000000000000000       -0.0000000000000000     
   959.80410193586476        0.0000000000000000       -0.0000000000000000     
   959.80457215471188        0.0000000000000000       -0.0000000000000000     
   959.80506730295633        0.0000000000000000       -0.0000000000000000     
   959.80558542658571        0.0000000000000000       -0.0000000000000000     
   959.80612448090869        0.0000000000000000       -0.0000000000000000     
   959.80668233862502        0.0000000000000000       -0.0000000000000000     
   959.80725679821717        0.0000000000000000       -0.0000000000000000     
   959.80784559263896        0.0000000000000000       -0.0000000000000000     
   959.80844639826046        0.0000000000000000       -0.0000000000000000     
   959.80905684403729        0.0000000000000000       -0.0000000000000000     
   959.80967452086713        0.0000000000000000       -0.0000000000000000     
   959.81029699109627        0.0000000000000000       -0.0000000000000000     
   959.81092179814016        0.0000000000000000       -0.0000000000000000     
   959.81154647617711        0.0000000000000000       -0.0000000000000000     
   959.81216855988009        0.0000000000000000       -0.0000000000000000     
   959.81278559414704        0.0000000000000000       -0.0000000000000000     
   959.81339514378953        0.0000000000000000       -0.0000000000000000     
   959.81399480314349        0.0000000000000000       -0.0000000000000000     
   959.81458220556578        0.0000000000000000       -0.0000000000000000     
   959.81515503277296        0.0000000000000000       -0.0000000000000000     
   959.81571102399425        0.0000000000000000       -0.0000000000000000     
   959.81624798489213        0.0000000000000000       -0.0000000000000000     
   959.81676379622718        0.0000000000000000       -0.0000000000000000     
   959.81725642221943        0.0000000000000000       -0.0000000000000000     
   959.81772391858851        0.0000000000000000       -0.0000000000000000     
   959.81816444022593        0.0000000000000000       -0.0000000000000000     
   959.81857624847873        0.0000000000000000       -0.0000000000000000     
   959.81895771801408        0.0000000000000000       -0.0000000000000000     
   959.81930734323498        0.0000000000000000       -0.0000000000000000     
   959.81962374422403        0.0000000000000000       -0.0000000000000000     
   959.81990567219077        0.0000000000000000       -0.0000000000000000     
   959.82015201440140        0.0000000000000000       -0.0000000000000000     
   959.82036179857300        0.0000000000000000       -0.0000000000000000     
   959.82053419671035        0.0000000000000000       -0.0000000000000000     
   959.82066852837647        0.0000000000000000       -0.0000000000000000     
   959.82076426337676        0.0000000000000000       -0.0000000000000000     
   959.82082102385448        0.0000000000000000       -0.0000000000000000     
   959.82083858578108        0.0000000000000000       -0.0000000000000000     
   959.82081687984112        0.0000000000000000       -0.0000000000000000     
   959.82075599170605        0.0000000000000000       -0.0000000000000000     
   959.82065616169575        0.0000000000000000       -0.0000000000000000     
   959.82051778383027        0.0000000000000000       -0.0000000000000000     
   959.82034140427299        0.0000000000000000       -0.0000000000000000     
   959.82012771917562        0.0000000000000000       -0.0000000000000000     
   959.81987757192962        0.0000000000000000       -0.0000000000000000     
   959.81959194983608        0.0000000000000000       -0.0000000000000000     
   959.81927198020821        0.0000000000000000       -0.0000000000000000     
   959.81891892592125        0.0000000000000000       -0.0000000000000000     
   959.81853418042613        0.0000000000000000       -0.0000000000000000     
   959.81811926224884        0.0000000000000000       -0.0000000000000000     
   959.81767580899589        0.0000000000000000        0.0000000000000000     
   934.09104752232827        29.354993768151182        0.0000000000000000     
   933.67615092615495        29.327476633737529       0.92165308307206073     
   933.28609852125589        29.271821768947312        1.8416269265015832     
   932.92131143195934        29.188117973278469        2.7590894882192178     
   932.58218963113143        29.076477008142859        3.6732132678414873     
   932.26911139281299        28.937033357893213        4.5831758330426604     
   931.98243276104120        28.769943986271524        5.4881603326383646     
   931.72248703581363        28.575388089070955        6.3873559969715519     
   931.48958427708203        28.353566843737521        7.2799586262416005     
   931.28401082757705        28.104703156568654        8.1651710674620279     
   931.10602885520836        27.829041408094326        9.0422036807716157     
   930.95587591569881        27.526847197151827        9.9102747958572035     
   930.83376453605854        27.198407084089766        10.768611159274279     
   930.73988181943696        26.844028333459136        11.616448373473395     
   930.67438907183396        26.464038656470958        12.453031328356431     
   930.63742145109802        26.058785953420873        13.277614626196895     
   930.62908763860116        25.628638056201904        14.089463000762777     
   930.64946953393110        25.173982470947688        14.887851731478840     
   930.69862197291354        24.695226120769696        15.672067053458052     
   930.77657246924980        24.192795088475080        16.441406564218827     
   930.88332098003525        23.667134359075213        17.195179627886539     
   931.01883969540711        23.118707561820660        17.932707777653651     
   931.18307285256924        22.547996711426109        18.653325117244190     
   931.37593657443551        21.955501948078197        19.356378722093815     
   931.59731873313763        21.341741275751779        20.041229040918065     
   931.84707883866326        20.707250298295531        20.707250298297676     
   932.12504795288874        20.052581952685721        21.353830898861503     
   932.43102862931198        19.378306238789015        21.980373833595568     
   932.76479487879340        18.685009944920132        22.586297088749593     
   933.12609216166118        17.973296368429327        23.171034057752713     
   933.51463740654810        17.243785030507539        23.734033956485138     
   933.93011905637331        16.497111384354355        24.274762242185698     
   934.37219714191008        15.733926515815481        24.792701036203887     
   934.84050338341353        14.954896835562465        25.287349550731548     
   935.33464132081383        14.160703761858462        25.758224519572426     
   935.85418647302117        13.352043392929696        26.204860632929140     
   936.39868652690836        12.529626167943029        26.626810976105237     
   936.96766155657167        11.694176515576604        27.023647471936908     
   937.56060427348882        10.846432489161906        27.394961326683550     
   938.17698030822089        9.9871453873730491        27.740363479019731     
   938.81622852431406        9.1170793594421582        28.059485051683343     
   939.47776136506343        8.2370109938884486        28.351977805245575     
   940.16096523381725        7.3477288897638156        28.617514593379646     
   940.86520090848342        6.4500332094387538        28.855789818915060     
   941.58980399089785        5.5447352119798339        29.066519889875170     
   942.33408539169307        4.6326567662038247        29.249443674606631     
   943.09733185128141        3.7146298425336690        29.404322955021641     
   943.87880649753151        2.7914959828284767        29.530942876886787     
   944.67774944067685        1.8641057474128675        29.629112396007837     
   945.49337840593932       0.93331813859097423        29.698664719076600     
   946.32488940429505       -3.0754035265591971E-012   29.739457737866186     
   947.17145744173752      -0.93497460879339689        29.751374455383925     
   948.03223726731596       -1.8707250628850238        29.734323402517742     
   948.90636416014331       -2.8063648483309231        29.688239043642788     
   949.79295475546280       -3.7410022643612066        29.613082169590069     
   950.69110790977379       -4.6737411517944940        29.508840276319820     
   951.59990560488893       -5.6036816477473721        29.375527927588013     
   952.51841389068807       -6.5299209666488096        29.213187099847111     
   953.44568386619835       -7.4515542074517249        29.021887507580683     
   954.38075269850299       -8.3676751868147363        28.801726907238027     
   955.32264467883169       -9.2773772979032518        28.552831377908202     
   956.27037231505017       -10.179754394331484        28.275355576855009     
   957.22293745960872       -11.073901698635938        27.969482968024664     
   958.17933247185113       -11.958916734536643        27.635426021636967     
   959.13854141343324       -12.833900282106391        27.273426382979451     
   960.09954127543415       -13.697957354830137        26.883755008542234     
   961.06130323557818       -14.550198197397743        26.466712267659080     
   962.02279394382015       -15.389739302934109        26.022628007858536     
   962.98297683438227       -16.215704448231968        25.551861582177718     
   963.94081346216558       -17.027225745415166        25.054801836750094     
   964.89526486129523       -17.823444708324864        24.531867057048490     
   965.84529292339187       -18.603513331788520        23.983504871244417     
   966.78986179302024       -19.366595181802953        23.410192109235911     
   967.72793927759631       -20.111866494538457        22.812434615996729     
   968.65849826889473       -20.838517281952171        22.190767018011211     
   969.58051817316868       -21.545752441687014        21.545752441680321     
   970.49298634674324       -22.232792868826426        20.877982182714835     
   971.39489953383895       -22.898876566978849        20.188075325671822     
   972.28526530326667       -23.543259756076857        19.476678312938770     
   973.16310348052264       -24.165217974197155        18.744464462626240     
   974.02744757174798       -24.764047170639461        17.992133434994138     
   974.87734617591684       -25.339064787444290        17.220410647206748     
   975.71186438158065       -25.889610826484422        16.430046636388756     
   976.53008514443638       -26.415048899230914        15.621816371135454     
   977.33111064196680       -26.914767256274072        14.796518511816220     
   978.11406360138722       -27.388179793671942        13.954974620198866     
   978.87808859714471       -27.834727033205471        13.098028319113514     
   979.62235331423449       -28.253877073638904        12.226544403066145     
   980.34604977365268       -28.645126510118573        11.341407900904024     
   981.04839551636326       -29.008001318890997        10.443523091825643     
   981.72863474223971       -29.342057704583954        9.5338124762157808     
   982.38603940056066       -29.646882907370543        8.6132157029714875     
   983.01991022873938       -29.922095967426326        7.6826884551641426     
   983.62957773614039       -30.167348444194090        6.7432012960573893     
   984.21440312997242       -30.382325088086944        5.7957384776675731     
   984.77377918045818       -30.566744462390972        4.8412967142127519     
   985.30713102265690       -30.720359513269294        3.8808839229460963     
   985.81391689255906       -30.842958085923080        2.9155179350095635     
   986.29362879529174       -30.934363385127497        1.9462251790724865     
   986.74579310353670       -30.994434378534063       0.97403934063664699     
   987.16997108452517       -31.023066141311588       -6.4162869314317535E-012
   987.56575935425178       -31.020190140887063      -0.97484874808934063     
   987.93279025784955       -30.985774460742778       -1.9494596898008316     
   988.27073217535622       -30.919823962426257       -2.9227838996199922     
   988.57928975242248       -30.822380385133851       -3.8937721562902081     
   988.85820405581831       -30.693522382435596       -4.8613763641375325     
   989.10725265392227       -30.533365495917405       -5.8245509764215591     
   989.32624962268187       -30.342062065724569       -6.7822544174054782     
   989.51504547787465       -30.119801078198364       -7.7334504998453237     
   989.67352703479139       -29.866807951001302       -8.6771098346275259     
   989.80161719680052       -29.583344256328576       -9.6122112293272206     
   989.89927467452787       -29.269707382998028       -10.537743072517310     
   989.96649363770837       -28.926230138402019       -11.452704700729900     
   990.00330330202951       -28.553280291486537       -12.356107745055995     
   990.00976745356309       -28.151260058097670       -13.246977454466004     
   989.98598391363464       -27.720605530201144       -14.124353993041794     
   989.93208394720921       -27.261786050635678       -14.987293708429446     
   989.84823161809959       -26.775303535206106       -15.834870368950069     
   989.73462309448473       -26.261691744055462       -16.666176366942420     
   989.59148590840425       -25.721515504376512       -17.480323886054805     
   989.41907817304150       -25.155369886633093       -18.276446030353885     
   989.21768776173485       -24.563879336558081       -19.053697913272924     
   988.98763145274427       -23.947696765278703       -19.811257704581063     
   988.72925404387718       -23.307502599991622       -20.548327633716532     
   988.44292744112875       -22.644003797668709       -21.264134947990527     
   988.12904972548654       -21.957932824320142       -21.957932824331508     
   987.78804420206370       -21.250046602375793       -22.629001233403375     
   987.42035843567214       -20.521125428767466       -23.276647755092391     
   987.02646327688637       -19.771971866305105       -23.900208344516503     
   986.60685188256230       -19.003409610939794       -24.499048047866790     
   986.16203873466031       -18.216282337495791       -25.072561667541756     
   985.69255866107983       -17.411452526433166       -25.620174376182067     
   985.19896586206028       -16.589800274174628       -26.141342279353786     
   984.68183294551261       -15.752222089491470       -26.635552926763641     
   984.14174997445753       -14.899629678400869       -27.102325772017537     
   983.57932352951480       -14.032948719974303       -27.541212581055657     
   982.99517578916846       -13.153117635401959       -27.951797789511247     
   982.38994363027416       -12.261086352595157       -28.333698809347855     
   981.76427775102491       -11.357815068545154       -28.686566285229148     
   981.11884181832158       -10.444273011586642       -29.010084301168444     
   980.45431164121612       -9.5214372056447836       -29.303970538089750     
   979.77137437182398       -8.5902912384704724       -29.567976383011359     
   979.07072773480900       -7.6518240357960634       -29.801886990633584     
   978.35307928627924       -6.7070286432680231       -30.005521298178532     
   977.61914570262707       -5.7569010179400104       -30.178731994387643     
   976.86965209959806       -4.8024388310345243       -30.321405443637349     
   976.10533138158405       -3.8446402836097398       -30.433461566180416     
   975.32692362087766       -2.8845029366948713       -30.514853675564275     
   974.53517546638523       -1.9230225573879585       -30.565568274316981     
   973.73083958103882      -0.96119198234113390       -30.585624809025916     
   972.91467410693508        9.4990261982513091E-012  -30.575075385966834     
   972.08744215701233       0.95956974717601762       -30.534004448469595     
   971.24991133188678        1.9165398390846931       -30.462528417233038     
   970.40285326028641        2.8699401321077547       -30.360795294826122     
   969.54704316137418        3.8188087895547711       -30.228984235635050     
   968.68325942710271        4.7621932875745916       -30.067305082537043     
   967.81228322263678        5.6991513954782338       -29.875997871601832     
   966.93489810277686        6.6287521295480074       -29.655332306141013     
   966.05188964224249        7.5500766794559837       -29.405607201443832     
   965.16404507763264        8.4622193064688975       -29.127149901556358     
   964.27215295882149        9.3642882126736051       -28.820315669477360     
   963.37700280757713        10.255406380511605       -28.485487052162583     
   962.47938478116055        11.134712381968468       -28.123073221743866     
   961.58008933871906        12.001361156820169       -27.733509294386199     
   960.67990690833119        12.854524759396261       -27.317255628220561     
   959.77962755262195        13.693393073379553       -26.874797101803466     
   958.88004063096059        14.517174494221203       -26.406642374567820     
   957.98193445635331        15.325096578813408       -25.913323130739823     
   957.08609594525626        16.116406662123875       -25.395393308206703     
   956.19331025866825        16.890372440562867       -24.853428313826626     
   955.30436043300404        17.646282521918856       -24.288024226677628     
   954.42002699940133        18.383446941768536       -23.699796990743614     
   953.54108759027326        19.101197646335176       -23.089381598535276     
   952.66831653209567        19.798888941841959       -22.457431267138446     
   951.80248442357754        20.475897910477254       -21.804616608174967     
   950.94435769855340        21.131624793163386       -21.131624793148077     
   950.09469817311242        21.765493339392403       -20.439158715628832     