 VARIABLES = "x_1", "x_2", "x_3"
 ZONE F = POINT , I =         201  , J =         101
   1290.6847680243416        0.0000000000000000        0.0000000000000000     
   1290.6847680243416        0.0000000000000000        0.0000000000000000     
   1290.6847680243416        0.0000000000000000        0.0000000000000000     
   1290.6847680243416        0.0000000000000000        0.0000000000000000     
   1290.6847680243416        0.0000000000000000        0.0000000000000000     
   1290.6847680243416        0.0000000000000000        0.0000000000000000     
   1290.6847680243416        0.0000000000000000        0.0000000000000000     
   1290.6847680243416        0.0000000000000000        0.0000000000000000     
   1290.6847680243416        0.0000000000000000        0.0000000000000000     
   1290.6847680243416        0.0000000000000000        0.0000000000000000     
   1290.6847680243416        0.0000000000000000        0.0000000000000000     
   1290.6847680243416        0.0000000000000000        0.0000000000000000     
   1290.6847680243416        0.0000000000000000        0.0000000000000000     
   1290.6847680243416        0.0000000000000000        0.0000000000000000     
   1290.6847680243416        0.0000000000000000        0.0000000000000000     
   1290.6847680243416        0.0000000000000000        0.0000000000000000     
   1290.6847680243416        0.0000000000000000        0.0000000000000000     
   1290.6847680243416        0.0000000000000000        0.0000000000000000     
   1290.6847680243416        0.0000000000000000        0.0000000000000000     
   1290.6847680243416        0.0000000000000000        0.0000000000000000     
   1290.6847680243416        0.0000000000000000        0.0000000000000000     
   1290.6847680243416        0.0000000000000000        0.0000000000000000     
   1290.6847680243416        0.0000000000000000        0.0000000000000000     
   1290.6847680243416        0.0000000000000000        0.0000000000000000     
   1290.6847680243416        0.0000000000000000        0.0000000000000000     
   1290.6847680243416        0.0000000000000000        0.0000000000000000     
   1290.6847680243416        0.0000000000000000        0.0000000000000000     
   1290.6847680243416        0.0000000000000000        0.0000000000000000     
   1290.6847680243416        0.0000000000000000        0.0000000000000000     
   1290.6847680243416        0.0000000000000000        0.0000000000000000     
   1290.6847680243416        0.0000000000000000        0.0000000000000000     
   1290.6847680243416        0.0000000000000000        0.0000000000000000     
   1290.6847680243416        0.0000000000000000        0.0000000000000000     
   1290.6847680243416        0.0000000000000000        0.0000000000000000     
   1290.6847680243416        0.0000000000000000        0.0000000000000000     
   1290.6847680243416        0.0000000000000000        0.0000000000000000     
   1290.6847680243416        0.0000000000000000        0.0000000000000000     
   1290.6847680243416        0.0000000000000000        0.0000000000000000     
   1290.6847680243416        0.0000000000000000        0.0000000000000000     
   1290.6847680243416        0.0000000000000000        0.0000000000000000     
   1290.6847680243416        0.0000000000000000        0.0000000000000000     
   1290.6847680243416        0.0000000000000000        0.0000000000000000     
   1290.6847680243416        0.0000000000000000        0.0000000000000000     
   1290.6847680243416        0.0000000000000000        0.0000000000000000     
   1290.6847680243416        0.0000000000000000        0.0000000000000000     
   1290.6847680243416        0.0000000000000000        0.0000000000000000     
   1290.6847680243416        0.0000000000000000        0.0000000000000000     
   1290.6847680243416        0.0000000000000000        0.0000000000000000     
   1290.6847680243416        0.0000000000000000        0.0000000000000000     
   1290.6847680243416        0.0000000000000000        0.0000000000000000     
   1290.6847680243416       -0.0000000000000000        0.0000000000000000     
   1290.6847680243416       -0.0000000000000000        0.0000000000000000     
   1290.6847680243416       -0.0000000000000000        0.0000000000000000     
   1290.6847680243416       -0.0000000000000000        0.0000000000000000     
   1290.6847680243416       -0.0000000000000000        0.0000000000000000     
   1290.6847680243416       -0.0000000000000000        0.0000000000000000     
   1290.6847680243416       -0.0000000000000000        0.0000000000000000     
   1290.6847680243416       -0.0000000000000000        0.0000000000000000     
   1290.6847680243416       -0.0000000000000000        0.0000000000000000     
   1290.6847680243416       -0.0000000000000000        0.0000000000000000     
   1290.6847680243416       -0.0000000000000000        0.0000000000000000     
   1290.6847680243416       -0.0000000000000000        0.0000000000000000     
   1290.6847680243416       -0.0000000000000000        0.0000000000000000     
   1290.6847680243416       -0.0000000000000000        0.0000000000000000     
   1290.6847680243416       -0.0000000000000000        0.0000000000000000     
   1290.6847680243416       -0.0000000000000000        0.0000000000000000     
   1290.6847680243416       -0.0000000000000000        0.0000000000000000     
   1290.6847680243416       -0.0000000000000000        0.0000000000000000     
   1290.6847680243416       -0.0000000000000000        0.0000000000000000     
   1290.6847680243416       -0.0000000000000000        0.0000000000000000     
   1290.6847680243416       -0.0000000000000000        0.0000000000000000     
   1290.6847680243416       -0.0000000000000000        0.0000000000000000     
   1290.6847680243416       -0.0000000000000000        0.0000000000000000     
   1290.6847680243416       -0.0000000000000000        0.0000000000000000     
   1290.6847680243416       -0.0000000000000000        0.0000000000000000     
   1290.6847680243416       -0.0000000000000000        0.0000000000000000     
   1290.6847680243416       -0.0000000000000000        0.0000000000000000     
   1290.6847680243416       -0.0000000000000000        0.0000000000000000     
   1290.6847680243416       -0.0000000000000000        0.0000000000000000     
   1290.6847680243416       -0.0000000000000000        0.0000000000000000     
   1290.6847680243416       -0.0000000000000000        0.0000000000000000     
   1290.6847680243416       -0.0000000000000000        0.0000000000000000     
   1290.6847680243416       -0.0000000000000000        0.0000000000000000     
   1290.6847680243416       -0.0000000000000000        0.0000000000000000     
   1290.6847680243416       -0.0000000000000000        0.0000000000000000     
   1290.6847680243416       -0.0000000000000000        0.0000000000000000     
   1290.6847680243416       -0.0000000000000000        0.0000000000000000     
   1290.6847680243416       -0.0000000000000000        0.0000000000000000     
   1290.6847680243416       -0.0000000000000000        0.0000000000000000     
   1290.6847680243416       -0.0000000000000000        0.0000000000000000     
   1290.6847680243416       -0.0000000000000000        0.0000000000000000     
   1290.6847680243416       -0.0000000000000000        0.0000000000000000     
   1290.6847680243416       -0.0000000000000000        0.0000000000000000     
   1290.6847680243416       -0.0000000000000000        0.0000000000000000     
   1290.6847680243416       -0.0000000000000000        0.0000000000000000     
   1290.6847680243416       -0.0000000000000000        0.0000000000000000     
   1290.6847680243416       -0.0000000000000000        0.0000000000000000     
   1290.6847680243416       -0.0000000000000000        0.0000000000000000     
   1290.6847680243416       -0.0000000000000000        0.0000000000000000     
   1290.6847680243416       -0.0000000000000000        0.0000000000000000     
   1290.6847680243416       -0.0000000000000000       -0.0000000000000000     
   1290.6847680243416       -0.0000000000000000       -0.0000000000000000     
   1290.6847680243416       -0.0000000000000000       -0.0000000000000000     
   1290.6847680243416       -0.0000000000000000       -0.0000000000000000     
   1290.6847680243416       -0.0000000000000000       -0.0000000000000000     
   1290.6847680243416       -0.0000000000000000       -0.0000000000000000     
   1290.6847680243416       -0.0000000000000000       -0.0000000000000000     
   1290.6847680243416       -0.0000000000000000       -0.0000000000000000     
   1290.6847680243416       -0.0000000000000000       -0.0000000000000000     
   1290.6847680243416       -0.0000000000000000       -0.0000000000000000     
   1290.6847680243416       -0.0000000000000000       -0.0000000000000000     
   1290.6847680243416       -0.0000000000000000       -0.0000000000000000     
   1290.6847680243416       -0.0000000000000000       -0.0000000000000000     
   1290.6847680243416       -0.0000000000000000       -0.0000000000000000     
   1290.6847680243416       -0.0000000000000000       -0.0000000000000000     
   1290.6847680243416       -0.0000000000000000       -0.0000000000000000     
   1290.6847680243416       -0.0000000000000000       -0.0000000000000000     
   1290.6847680243416       -0.0000000000000000       -0.0000000000000000     
   1290.6847680243416       -0.0000000000000000       -0.0000000000000000     
   1290.6847680243416       -0.0000000000000000       -0.0000000000000000     
   1290.6847680243416       -0.0000000000000000       -0.0000000000000000     
   1290.6847680243416       -0.0000000000000000       -0.0000000000000000     
   1290.6847680243416       -0.0000000000000000       -0.0000000000000000     
   1290.6847680243416       -0.0000000000000000       -0.0000000000000000     
   1290.6847680243416       -0.0000000000000000       -0.0000000000000000     
   1290.6847680243416       -0.0000000000000000       -0.0000000000000000     
   1290.6847680243416       -0.0000000000000000       -0.0000000000000000     
   1290.6847680243416       -0.0000000000000000       -0.0000000000000000     
   1290.6847680243416       -0.0000000000000000       -0.0000000000000000     
   1290.6847680243416       -0.0000000000000000       -0.0000000000000000     
   1290.6847680243416       -0.0000000000000000       -0.0000000000000000     
   1290.6847680243416       -0.0000000000000000       -0.0000000000000000     
   1290.6847680243416       -0.0000000000000000       -0.0000000000000000     
   1290.6847680243416       -0.0000000000000000       -0.0000000000000000     
   1290.6847680243416       -0.0000000000000000       -0.0000000000000000     
   1290.6847680243416       -0.0000000000000000       -0.0000000000000000     
   1290.6847680243416       -0.0000000000000000       -0.0000000000000000     
   1290.6847680243416       -0.0000000000000000       -0.0000000000000000     
   1290.6847680243416       -0.0000000000000000       -0.0000000000000000     
   1290.6847680243416       -0.0000000000000000       -0.0000000000000000     
   1290.6847680243416       -0.0000000000000000       -0.0000000000000000     
   1290.6847680243416       -0.0000000000000000       -0.0000000000000000     
   1290.6847680243416       -0.0000000000000000       -0.0000000000000000     
   1290.6847680243416       -0.0000000000000000       -0.0000000000000000     
   1290.6847680243416       -0.0000000000000000       -0.0000000000000000     
   1290.6847680243416       -0.0000000000000000       -0.0000000000000000     
   1290.6847680243416       -0.0000000000000000       -0.0000000000000000     
   1290.6847680243416       -0.0000000000000000       -0.0000000000000000     
   1290.6847680243416       -0.0000000000000000       -0.0000000000000000     
   1290.6847680243416       -0.0000000000000000       -0.0000000000000000     
   1290.6847680243416        0.0000000000000000       -0.0000000000000000     
   1290.6847680243416        0.0000000000000000       -0.0000000000000000     
   1290.6847680243416        0.0000000000000000       -0.0000000000000000     
   1290.6847680243416        0.0000000000000000       -0.0000000000000000     
   1290.6847680243416        0.0000000000000000       -0.0000000000000000     
   1290.6847680243416        0.0000000000000000       -0.0000000000000000     
   1290.6847680243416        0.0000000000000000       -0.0000000000000000     
   1290.6847680243416        0.0000000000000000       -0.0000000000000000     
   1290.6847680243416        0.0000000000000000       -0.0000000000000000     
   1290.6847680243416        0.0000000000000000       -0.0000000000000000     
   1290.6847680243416        0.0000000000000000       -0.0000000000000000     
   1290.6847680243416        0.0000000000000000       -0.0000000000000000     
   1290.6847680243416        0.0000000000000000       -0.0000000000000000     
   1290.6847680243416        0.0000000000000000       -0.0000000000000000     
   1290.6847680243416        0.0000000000000000       -0.0000000000000000     
   1290.6847680243416        0.0000000000000000       -0.0000000000000000     
   1290.6847680243416        0.0000000000000000       -0.0000000000000000     
   1290.6847680243416        0.0000000000000000       -0.0000000000000000     
   1290.6847680243416        0.0000000000000000       -0.0000000000000000     
   1290.6847680243416        0.0000000000000000       -0.0000000000000000     
   1290.6847680243416        0.0000000000000000       -0.0000000000000000     
   1290.6847680243416        0.0000000000000000       -0.0000000000000000     
   1290.6847680243416        0.0000000000000000       -0.0000000000000000     
   1290.6847680243416        0.0000000000000000       -0.0000000000000000     
   1290.6847680243416        0.0000000000000000       -0.0000000000000000     
   1290.6847680243416        0.0000000000000000       -0.0000000000000000     
   1290.6847680243416        0.0000000000000000       -0.0000000000000000     
   1290.6847680243416        0.0000000000000000       -0.0000000000000000     
   1290.6847680243416        0.0000000000000000       -0.0000000000000000     
   1290.6847680243416        0.0000000000000000       -0.0000000000000000     
   1290.6847680243416        0.0000000000000000       -0.0000000000000000     
   1290.6847680243416        0.0000000000000000       -0.0000000000000000     
   1290.6847680243416        0.0000000000000000       -0.0000000000000000     
   1290.6847680243416        0.0000000000000000       -0.0000000000000000     
   1290.6847680243416        0.0000000000000000       -0.0000000000000000     
   1290.6847680243416        0.0000000000000000       -0.0000000000000000     
   1290.6847680243416        0.0000000000000000       -0.0000000000000000     
   1290.6847680243416        0.0000000000000000       -0.0000000000000000     
   1290.6847680243416        0.0000000000000000       -0.0000000000000000     
   1290.6847680243416        0.0000000000000000       -0.0000000000000000     
   1290.6847680243416        0.0000000000000000       -0.0000000000000000     
   1290.6847680243416        0.0000000000000000       -0.0000000000000000     
   1290.6847680243416        0.0000000000000000       -0.0000000000000000     
   1290.6847680243416        0.0000000000000000       -0.0000000000000000     
   1290.6847680243416        0.0000000000000000       -0.0000000000000000     
   1290.6847680243416        0.0000000000000000       -0.0000000000000000     
   1290.6847680243416        0.0000000000000000       -0.0000000000000000     
   1290.6847680243416        0.0000000000000000       -0.0000000000000000     
   1290.6847680243416        0.0000000000000000       -0.0000000000000000     
   1290.6847680243416        0.0000000000000000       -0.0000000000000000     
   1290.6847680243416        0.0000000000000000        0.0000000000000000     
   1640.0747293972622        51.541424777018904        0.0000000000000000     
   1631.4475891333607        51.245007170864589        1.6104392287451343     
   1622.4821727048638        50.887942141173440        3.2015979470351192     
   1613.2067202344324        50.472068210355594        4.7710151430580172     
   1603.6495261768623        49.999323486377016        6.3163834587603276     
   1593.8387772301580        49.471730104741908        7.8355522845265853     
   1583.8024009375620        48.891379020208461        9.3265293486401877     
   1573.5679259173392        48.260415298824960        10.787480894902846     
   1563.1623544053093        47.581024040802596        12.216730555286622     
   1552.6120475545742        46.855417044105693        13.612757034688036     
   1541.9426237120490        46.085820297981407        14.974190731865479     
   1531.1788696857104        45.274462375446561        16.299809424662261     
   1520.3446648323629        44.423563774402353        17.588533148898982     
   1509.4629176348271        43.535327238890211        18.839418399156120     
   1498.5555143004644        42.611929075287179        20.051651776381462     
   1487.6432787998860        41.655511463148784        21.224543202182844     
   1476.7459436749155        40.668175747055699        22.357518813138810     
   1465.8821308772986        39.651976684262344        23.450113640804901     
   1455.0693418526157        38.608917613177326        24.501964174616496     
   1444.3239560556556        37.540946499687017        25.512800895873948     
   1433.6612370720554        36.449952811980857        26.482440861694990     
   1423.0953455241786        35.337765169741623        27.410780408453682     
   1412.6393579548549        34.206149710197963        28.297788034983927     
   1402.3052909086728        33.056809111457142        29.143497516864290     
   1392.1041294648869        31.891382212592958        29.948001294543925     
   1382.0458595169162        30.711444170009191        30.711444170012374     
   1372.1395031390277        29.518507090481570        31.434017339226720     
   1362.3931564296734        28.314021082861526        32.115952780633457     
   1352.8140292716259        27.099375672569668        32.757518013882333     
   1343.4084865004304        25.875901525591672        33.359011237232274     
   1334.1820900237230        24.644872431607098        33.920756847186894     
   1325.1396414838696        23.407507499030807        34.443101339549429     
   1316.2852251044239        22.164973518043595        34.926409587324130     
   1307.6222504067250        20.918387451060415        35.371061487680670     
   1299.1534945259493        19.668819013467019        35.777448967495914     
   1290.8811438961120        18.417293310801991        36.145973334756178     
   1282.8068351104159        17.164793501826178        36.477042961293499     
   1274.9316947971995        15.912263460078345        36.771071280903946     
   1267.2563783822543        14.660610409536176        37.028475085806868     
   1259.7811076357493        13.410707512873131        37.249673103614882     
   1252.5057069263444        12.163396393510407        37.435084836454379     
   1245.4296381265622        10.919489575205281        37.585129643572650     
   1238.5520341321594        9.6797728252898789        37.700226048655566     
   1231.8717309744027        8.4450073898806650        37.780791253132982     
   1225.3872985178746        7.2159321114214023        37.827240836939346     
   1219.0970697480282        5.9932654208087337        37.839988628503534     
   1212.9991686622650        4.7777071980858015        37.819446726143916     
   1207.0915367861410        3.5699404972852067        37.766025653525716     
   1201.3719583424738        2.3706331324653380        37.680134632382924     
   1195.8380841059543        1.1804391233238012        37.562181956305238     
   1190.4874539794043       -3.8688925497853684E-012   37.412575450030978     
   1185.3175183303292       -1.1700540322342112        37.231722999361217     
   1180.3256581279923       -2.3291030665697594        37.020033137513728     
   1175.5092039220519       -3.4765366040052919        36.777915674459926     
   1170.8654537039640       -4.6117527947936674        36.505782356531448     
   1166.3916896920132       -5.7341578077976996        36.204047544341776     
   1162.0851940800603       -6.8431653227687352        35.873128897838733     
   1157.9432637890231       -7.9381961399787020        35.513448058084890     
   1153.9632242587782       -9.0186779010861535        35.125431316151619     
   1150.1424423167146       -10.084044914636268        34.709510260308647     
   1146.4783381575985       -11.133738079177382        34.266122393490967     
   1142.9683964678086       -12.167204896620916        33.795711713828709     
   1139.6101767254131       -13.183899568176475        33.298729251830110     
   1136.4013227060193       -14.183283164957883        32.775633558611730     
   1133.3395712228621       -15.164823865179018        32.226891140370256     
   1130.4227601282500       -16.127997249739281        31.652976835085969     
   1127.6488356022301       -17.072286647936519        31.054374128233199     
   1125.0158587532562       -17.997183525040505        30.431575405049244     
   1122.5220115546504       -18.902187903510136        29.785082137672163     
   1120.1656021398367       -19.786808809742890        29.115405006200639     
   1117.9450694786185       -20.650564738402867        28.423063953448587     
   1115.8589874562103       -21.492984126583288        27.708588173862530     
   1113.9060683762782       -22.313605830318032        26.972516037735520     
   1112.0851659088880       -23.111979596261715        26.215394952484765     
   1110.3952775040088       -23.887666521707530        25.437781163358238     
   1108.8355462910115       -24.640239496501511        24.640239496493855     
   1107.4052624844562       -25.369283620838704        23.823343047771946     
   1106.1038643163656       -26.074396593387146        22.987672821374119     
   1104.9309385150459       -26.755189064673889        22.133817322386992     
   1103.8862203504254       -27.411284951181429        21.262372108166847     
   1102.9695932657278       -28.042321706136033        20.373939303508589     
   1102.1810881150916       -28.647950543518419        19.469127084939046     
   1101.5208820265073       -29.227836612386781        18.548549139681079     
   1100.9892969090722       -29.781659119167280        17.612824105009651     
   1100.5867976231389       -30.309111396134060        16.662574993846746     
   1100.3139898313650       -30.809900914864226        15.698428612518189     
   1100.1716175479926       -31.283749244009613        14.721014976624907     
   1100.1605604028659       -31.730391951272150        13.730966730965388     
   1100.2818306357435       -32.149578450000078        12.728918579387882     
   1100.5365698353394       -32.541071791334296        11.715506730352987     
   1100.9260454362905       -32.904648403326405        10.691368363852622     
   1101.4516469857986       -33.240097778917772        9.6571411251637471     
   1102.1148821901495       -33.547222115113456        8.6134626507174321     
   1102.9173727495715       -33.825835906102341        7.5609701311403184     
   1103.8608499880181       -34.075765493465383        6.5002999162790438     
   1104.9471502824272       -34.296848576977517        5.4320871667530399     
   1106.1782102938357       -34.488933689844600        4.3569655563001479     
   1107.5560620004353       -34.651879642527383        3.2755670288866123     
   1109.0828275301812       -34.785554939587065        2.1885216142505928     
   1110.7607137880429       -34.889837174248555        1.0964573052399860     
   1112.5920068702899       -34.964612405613998       -7.2314897766334363E-012
   1114.5790662554323       -35.009774523676647       -1.1002264883061190     
   1116.7243187585848       -35.025224607484581       -2.2036003516716542     
   1119.0302522330614       -35.010870281986996       -3.3095016354629321     
   1121.4994090000014       -34.966625079266834       -4.4173120126295151     
   1124.1343789837665       -34.892407810024032       -5.5264144825739150     
   1126.9377925277413       -34.788141951327155       -6.6361929934512878     
   1129.9123128620338       -34.653755056799227       -7.7460319870336889     
   1133.0606281914568       -34.489178195550984       -8.8553158655718534     
   1136.3854433690310       -34.294345426320739       -9.9634283803959303     
   1139.8894711171765       -34.069193313430311       -11.069751942308514     
   1143.5754227557320       -33.813660491320128       -12.173666854142770     
   1147.4459983929908       -33.527687284586953       -13.274550466188181     
   1151.5038765331265       -33.211215390614612       -14.371776255530598     
   1155.7517030506842       -32.864187632063128       -15.464712830715818     
   1160.1920794803564       -32.486547786664872       -16.552722863532395     
   1164.8275505679671       -32.078240501964949       -17.635161950123795     
   1169.6605910266503       -31.639211302839570       -18.711377404089170     
   1174.6935914405474       -31.169406699824073       -19.780706984720883     
   1179.9288432571423       -30.668774406481461       -20.842477564062147     
   1185.3685228085842       -30.137263674237353       -21.896003737055977     
   1191.0146743021655       -29.574825753292707       -22.940586379703458     
   1196.8691917205647       -28.981414488395288       -23.975511160862002     
   1202.9337995736828       -28.356987058397674       -25.000047014098559     
   1209.2100324459541       -27.701504868642107       -26.013444576875902     
   1215.6992132860594       -27.014934605282679       -27.014934605296659     
   1222.4024303901408       -26.297249460668919       -28.003726373666503     
   1229.3205130350248       -25.548430538858483       -28.979006069267605     
   1236.4540057248014       -24.768468450184777       -29.939935193961254     
   1243.8031410225096       -23.957365103559777       -30.885648985564963     
   1251.3678109488480       -23.115135704824706       -31.815254873376418     
   1259.1475369418888       -22.241810968948528       -32.727830983741313     
   1267.1414383859885       -21.337439553197001       -33.622424713180912     
   1275.3481997345436       -20.402090717523485       -34.498051388302471     
   1283.7660362701993       -19.435857217347955       -35.353693033498118     
   1292.3926585676934       -18.438858432557812       -36.188297269285208     
   1301.2252357488810       -17.411243734963676       -37.000776366030458     
   1310.2603576467991       -16.353196094539641       -37.790006479712858     
   1319.4939960259144       -15.264935922550015       -38.554827098280782     
   1328.9214650391150       -14.146725147080975       -39.294040729018917     
   1338.5373811384638       -12.998871513537580       -40.006412859110370     
   1348.3356226962594       -11.821733099307412       -40.690672223218215     
   1358.3092896353041       -10.615723028021824       -41.345511413352739     
   1368.4506634123711       -9.3813143646479258       -41.969587867481351     
   1378.7511677461775       -8.1190451680232663       -42.561525274196647     
   1389.2013305304151       -6.8295236724007529       -43.119915431213052     
   1399.7907474228207       -5.5134335641305130       -43.643320595422274     
   1410.5080476522091       -4.1715393137922545       -44.130276361614911     
   1421.3408626359026       -2.8046915179619183       -44.579295105672458     
   1432.2757980489102       -1.4138321984114239       -44.988870025951655     
   1443.2984100323481        1.4091605125985435E-011  -45.357479813625268     
   1454.3931862704183        1.4356647782089247       -45.683593978814031     
   1465.5435327011235        2.8919153902242520       -45.965678854352724     
   1476.7317666540437        4.3673941675252381       -46.202204292905712     
   1487.9391172269379        5.8606284442485199       -46.391651065817769     
   1499.1457337196184        7.3700269729425489       -46.532518963515443     
   1510.3307029364137        8.8938769247812708       -46.623335587447933     
   1521.4720761454089        10.430341571687393       -46.662665812492520     
   1532.5469064415759        11.977458749945594       -46.649121886504396     
   1543.5312971999363        13.533140205459757       -46.581374120365254     
   1554.4004622224868        15.095171919567020       -46.458162107629242     
   1565.1287980773905        16.661215511007303       -46.278306397879938     
   1575.6899690002840        18.228810804046628       -46.040720532458813     
   1586.0570045750367        19.795379644663505       -45.744423335614229     
   1596.2024102356049        21.358231035990070       -45.388551338722351     
   1606.0982904329328        22.914567650765491       -44.972371200462838     
   1615.7164840933171        24.461493762387654       -44.495291972154874     
   1625.0287117604189        25.996024617317872       -43.956877045363711     
   1634.0067335661581        27.515097250255302       -43.356855608885809     
   1642.6225169211418        29.015582719928730       -42.695133434821031     
   1650.8484125588654        30.494299717914867       -41.971802809136207     
   1658.6573373164510        31.948029476073827       -41.187151421364611     
   1666.0229617953230        33.373531870562893       -40.341670031258509     
   1672.9199008258465        34.767562592633269       -39.436058737614985     
   1679.3239044681441        36.126891229263940       -38.471231686316735     
   1685.2120471250971        37.448320070957287       -37.448320070930166     
   1690.5629122297689        38.728703440524242       -36.368673299894652     