 VARIABLES = "x_1", "x_2", "x_3"
 ZONE F = POINT , I =         201  , J =         101
   50.545809739260285        0.0000000000000000        0.0000000000000000     
   50.543065353628997        0.0000000000000000        0.0000000000000000     
   50.540726124374096        0.0000000000000000        0.0000000000000000     
   50.538801112993916        0.0000000000000000        0.0000000000000000     
   50.537297773577464        0.0000000000000000        0.0000000000000000     
   50.536221925614022        0.0000000000000000        0.0000000000000000     
   50.535577732792916        0.0000000000000000        0.0000000000000000     
   50.535367687850425        0.0000000000000000        0.0000000000000000     
   50.535592603503702        0.0000000000000000        0.0000000000000000     
   50.536251609495864        0.0000000000000000        0.0000000000000000     
   50.537342155760172        0.0000000000000000        0.0000000000000000     
   50.538860021694681        0.0000000000000000        0.0000000000000000     
   50.540799331522976        0.0000000000000000        0.0000000000000000     
   50.543152575700205        0.0000000000000000        0.0000000000000000     
   50.545910638307262        0.0000000000000000        0.0000000000000000     
   50.549062830359205        0.0000000000000000        0.0000000000000000     
   50.552596928937518        0.0000000000000000        0.0000000000000000     
   50.556499222038653        0.0000000000000000        0.0000000000000000     
   50.560754559013859        0.0000000000000000        0.0000000000000000     
   50.565346406458019        0.0000000000000000        0.0000000000000000     
   50.570256909387005        0.0000000000000000        0.0000000000000000     
   50.575466957525229        0.0000000000000000        0.0000000000000000     
   50.580956256506447        0.0000000000000000        0.0000000000000000     
   50.586703403772439        0.0000000000000000        0.0000000000000000     
   50.592685968935378        0.0000000000000000        0.0000000000000000     
   50.598880578350908        0.0000000000000000        0.0000000000000000     
   50.605263003630128        0.0000000000000000        0.0000000000000000     
   50.611808253799900        0.0000000000000000        0.0000000000000000     
   50.618490670802707        0.0000000000000000        0.0000000000000000     
   50.625284028008622        0.0000000000000000        0.0000000000000000     
   50.632161631394993        0.0000000000000000        0.0000000000000000     
   50.639096423031717        0.0000000000000000        0.0000000000000000     
   50.646061086494477        0.0000000000000000        0.0000000000000000     
   50.653028153812535        0.0000000000000000        0.0000000000000000     
   50.659970113543991        0.0000000000000000        0.0000000000000000     
   50.666859519558429        0.0000000000000000        0.0000000000000000     
   50.673669100095815        0.0000000000000000        0.0000000000000000     
   50.680371866660728        0.0000000000000000        0.0000000000000000     
   50.686941222303702        0.0000000000000000        0.0000000000000000     
   50.693351068835256        0.0000000000000000        0.0000000000000000     
   50.699575912515122        0.0000000000000000        0.0000000000000000     
   50.705590967757864        0.0000000000000000        0.0000000000000000     
   50.711372258397162        0.0000000000000000        0.0000000000000000     
   50.716896716055182        0.0000000000000000        0.0000000000000000     
   50.722142275169510        0.0000000000000000        0.0000000000000000     
   50.727087964239644        0.0000000000000000        0.0000000000000000     
   50.731713992866645        0.0000000000000000        0.0000000000000000     
   50.736001834174225        0.0000000000000000        0.0000000000000000     
   50.739934302217037        0.0000000000000000        0.0000000000000000     
   50.743495624001753        0.0000000000000000        0.0000000000000000     
   50.746671505769292       -0.0000000000000000        0.0000000000000000     
   50.749449193211738       -0.0000000000000000        0.0000000000000000     
   50.751817525324583       -0.0000000000000000        0.0000000000000000     
   50.753766981625247       -0.0000000000000000        0.0000000000000000     
   50.755289722500152       -0.0000000000000000        0.0000000000000000     
   50.756379622475890       -0.0000000000000000        0.0000000000000000     
   50.757032296245697       -0.0000000000000000        0.0000000000000000     
   50.757245117318199       -0.0000000000000000        0.0000000000000000     
   50.757017229193195       -0.0000000000000000        0.0000000000000000     
   50.756349549007162       -0.0000000000000000        0.0000000000000000     
   50.755244763629655       -0.0000000000000000        0.0000000000000000     
   50.753707318230859       -0.0000000000000000        0.0000000000000000     
   50.751743397378661       -0.0000000000000000        0.0000000000000000     
   50.749360898762063       -0.0000000000000000        0.0000000000000000     
   50.746569399674989       -0.0000000000000000        0.0000000000000000     
   50.743380116430657       -0.0000000000000000        0.0000000000000000     
   50.739805856912113       -0.0000000000000000        0.0000000000000000     
   50.735860966497604       -0.0000000000000000        0.0000000000000000     
   50.731561267631200       -0.0000000000000000        0.0000000000000000     
   50.726923993338737       -0.0000000000000000        0.0000000000000000     
   50.721967715016575       -0.0000000000000000        0.0000000000000000     
   50.716712264845491       -0.0000000000000000        0.0000000000000000     
   50.711178653205131       -0.0000000000000000        0.0000000000000000     
   50.705388981483537       -0.0000000000000000        0.0000000000000000     
   50.699366350694220       -0.0000000000000000        0.0000000000000000     
   50.693134766327681       -0.0000000000000000        0.0000000000000000     
   50.686719039875555       -0.0000000000000000        0.0000000000000000     
   50.680144687475348       -0.0000000000000000        0.0000000000000000     
   50.673437826129366       -0.0000000000000000        0.0000000000000000     
   50.666625067955849       -0.0000000000000000        0.0000000000000000     
   50.659733412930748       -0.0000000000000000        0.0000000000000000     
   50.652790140578141       -0.0000000000000000        0.0000000000000000     
   50.645822701062770       -0.0000000000000000        0.0000000000000000     
   50.638858606133589       -0.0000000000000000        0.0000000000000000     
   50.631925320358079       -0.0000000000000000        0.0000000000000000     
   50.625050153078817       -0.0000000000000000        0.0000000000000000     
   50.618260151511372       -0.0000000000000000        0.0000000000000000     
   50.611581995390708       -0.0000000000000000        0.0000000000000000     
   50.605041893558536       -0.0000000000000000        0.0000000000000000     
   50.598665482869102       -0.0000000000000000        0.0000000000000000     
   50.592477729774444       -0.0000000000000000        0.0000000000000000     
   50.586502834933597       -0.0000000000000000        0.0000000000000000     
   50.580764141172018       -0.0000000000000000        0.0000000000000000     
   50.575284045099608       -0.0000000000000000        0.0000000000000000     
   50.570083912677241       -0.0000000000000000        0.0000000000000000     
   50.565183999003033       -0.0000000000000000        0.0000000000000000     
   50.560603372570540       -0.0000000000000000        0.0000000000000000     
   50.556359844232496       -0.0000000000000000        0.0000000000000000     
   50.552469901084969       -0.0000000000000000        0.0000000000000000     
   50.548948645467924       -0.0000000000000000        0.0000000000000000     
   50.545809739260264       -0.0000000000000000       -0.0000000000000000     
   50.543065353628990       -0.0000000000000000       -0.0000000000000000     
   50.540726124374082       -0.0000000000000000       -0.0000000000000000     
   50.538801112993909       -0.0000000000000000       -0.0000000000000000     
   50.537297773577457       -0.0000000000000000       -0.0000000000000000     
   50.536221925614008       -0.0000000000000000       -0.0000000000000000     
   50.535577732792916       -0.0000000000000000       -0.0000000000000000     
   50.535367687850432       -0.0000000000000000       -0.0000000000000000     
   50.535592603503694       -0.0000000000000000       -0.0000000000000000     
   50.536251609495871       -0.0000000000000000       -0.0000000000000000     
   50.537342155760193       -0.0000000000000000       -0.0000000000000000     
   50.538860021694695       -0.0000000000000000       -0.0000000000000000     
   50.540799331522983       -0.0000000000000000       -0.0000000000000000     
   50.543152575700226       -0.0000000000000000       -0.0000000000000000     
   50.545910638307284       -0.0000000000000000       -0.0000000000000000     
   50.549062830359233       -0.0000000000000000       -0.0000000000000000     
   50.552596928937540       -0.0000000000000000       -0.0000000000000000     
   50.556499222038681       -0.0000000000000000       -0.0000000000000000     
   50.560754559013887       -0.0000000000000000       -0.0000000000000000     
   50.565346406458055       -0.0000000000000000       -0.0000000000000000     
   50.570256909387027       -0.0000000000000000       -0.0000000000000000     
   50.575466957525265       -0.0000000000000000       -0.0000000000000000     
   50.580956256506497       -0.0000000000000000       -0.0000000000000000     
   50.586703403772475       -0.0000000000000000       -0.0000000000000000     
   50.592685968935413       -0.0000000000000000       -0.0000000000000000     
   50.598880578350951       -0.0000000000000000       -0.0000000000000000     
   50.605263003630171       -0.0000000000000000       -0.0000000000000000     
   50.611808253799950       -0.0000000000000000       -0.0000000000000000     
   50.618490670802750       -0.0000000000000000       -0.0000000000000000     
   50.625284028008657       -0.0000000000000000       -0.0000000000000000     
   50.632161631395043       -0.0000000000000000       -0.0000000000000000     
   50.639096423031766       -0.0000000000000000       -0.0000000000000000     
   50.646061086494520       -0.0000000000000000       -0.0000000000000000     
   50.653028153812585       -0.0000000000000000       -0.0000000000000000     
   50.659970113544041       -0.0000000000000000       -0.0000000000000000     
   50.666859519558479       -0.0000000000000000       -0.0000000000000000     
   50.673669100095864       -0.0000000000000000       -0.0000000000000000     
   50.680371866660778       -0.0000000000000000       -0.0000000000000000     
   50.686941222303744       -0.0000000000000000       -0.0000000000000000     
   50.693351068835305       -0.0000000000000000       -0.0000000000000000     
   50.699575912515158       -0.0000000000000000       -0.0000000000000000     
   50.705590967757907       -0.0000000000000000       -0.0000000000000000     
   50.711372258397205       -0.0000000000000000       -0.0000000000000000     
   50.716896716055217       -0.0000000000000000       -0.0000000000000000     
   50.722142275169546       -0.0000000000000000       -0.0000000000000000     
   50.727087964239679       -0.0000000000000000       -0.0000000000000000     
   50.731713992866680       -0.0000000000000000       -0.0000000000000000     
   50.736001834174246       -0.0000000000000000       -0.0000000000000000     
   50.739934302217051       -0.0000000000000000       -0.0000000000000000     
   50.743495624001760       -0.0000000000000000       -0.0000000000000000     
   50.746671505769321        0.0000000000000000       -0.0000000000000000     
   50.749449193211774        0.0000000000000000       -0.0000000000000000     
   50.751817525324590        0.0000000000000000       -0.0000000000000000     
   50.753766981625255        0.0000000000000000       -0.0000000000000000     
   50.755289722500159        0.0000000000000000       -0.0000000000000000     
   50.756379622475905        0.0000000000000000       -0.0000000000000000     
   50.757032296245697        0.0000000000000000       -0.0000000000000000     
   50.757245117318199        0.0000000000000000       -0.0000000000000000     
   50.757017229193195        0.0000000000000000       -0.0000000000000000     
   50.756349549007155        0.0000000000000000       -0.0000000000000000     
   50.755244763629648        0.0000000000000000       -0.0000000000000000     
   50.753707318230845        0.0000000000000000       -0.0000000000000000     
   50.751743397378640        0.0000000000000000       -0.0000000000000000     
   50.749360898762056        0.0000000000000000       -0.0000000000000000     
   50.746569399674968        0.0000000000000000       -0.0000000000000000     
   50.743380116430629        0.0000000000000000       -0.0000000000000000     
   50.739805856912085        0.0000000000000000       -0.0000000000000000     
   50.735860966497569        0.0000000000000000       -0.0000000000000000     
   50.731561267631172        0.0000000000000000       -0.0000000000000000     
   50.726923993338715        0.0000000000000000       -0.0000000000000000     
   50.721967715016525        0.0000000000000000       -0.0000000000000000     
   50.716712264845455        0.0000000000000000       -0.0000000000000000     
   50.711178653205103        0.0000000000000000       -0.0000000000000000     
   50.705388981483495        0.0000000000000000       -0.0000000000000000     
   50.699366350694184        0.0000000000000000       -0.0000000000000000     
   50.693134766327638        0.0000000000000000       -0.0000000000000000     
   50.686719039875506        0.0000000000000000       -0.0000000000000000     
   50.680144687475305        0.0000000000000000       -0.0000000000000000     
   50.673437826129323        0.0000000000000000       -0.0000000000000000     
   50.666625067955806        0.0000000000000000       -0.0000000000000000     
   50.659733412930713        0.0000000000000000       -0.0000000000000000     
   50.652790140578084        0.0000000000000000       -0.0000000000000000     
   50.645822701062713        0.0000000000000000       -0.0000000000000000     
   50.638858606133539        0.0000000000000000       -0.0000000000000000     
   50.631925320358036        0.0000000000000000       -0.0000000000000000     
   50.625050153078774        0.0000000000000000       -0.0000000000000000     
   50.618260151511301        0.0000000000000000       -0.0000000000000000     
   50.611581995390658        0.0000000000000000       -0.0000000000000000     
   50.605041893558500        0.0000000000000000       -0.0000000000000000     
   50.598665482869073        0.0000000000000000       -0.0000000000000000     
   50.592477729774401        0.0000000000000000       -0.0000000000000000     
   50.586502834933547        0.0000000000000000       -0.0000000000000000     
   50.580764141171983        0.0000000000000000       -0.0000000000000000     
   50.575284045099565        0.0000000000000000       -0.0000000000000000     
   50.570083912677205        0.0000000000000000       -0.0000000000000000     
   50.565183999002997        0.0000000000000000       -0.0000000000000000     
   50.560603372570505        0.0000000000000000       -0.0000000000000000     
   50.556359844232489        0.0000000000000000       -0.0000000000000000     
   50.552469901084955        0.0000000000000000       -0.0000000000000000     
   50.548948645467895        0.0000000000000000       -0.0000000000000000     
   50.545809739260257        0.0000000000000000        0.0000000000000000     
   49.118922313533396        1.5436243203878992        0.0000000000000000     
   49.089408893899822        1.5419355960541168        4.8457278263313100E-002
   49.062092956955105        1.5387959200538832        9.6812833281470279E-002
   49.036828947051013        1.5342052226731557       0.14502509228323049     
   49.013467135835000        1.5281644514658423       0.19305206531713057     
   48.991855360924269        1.5206756670572601       0.24085136444202115     
   48.971840780409572        1.5117421387257362       0.28838023608566943     
   48.953271627448053        1.5013684379716647       0.33559560647261566     
   48.935998948443853        1.4895605282871756       0.38245413979046977     
   48.919878307725476        1.4763258493746856       0.42891230853093393     
   48.904771441245913        1.4616733941301323       0.47492647521251713     
   48.890547841692388        1.4456137768071560       0.52045298447103816     
   48.877086257528575        1.4281592909116421       0.56544826429665307     
   48.864276088925678        1.4093239555405261       0.60986893500742390     
   48.852018664284678        1.3891235490724183       0.65367192438432342     
   48.840228382116749        1.3675756293372396       0.69681458725573686     
   48.828833704426366        1.3446995396335482       0.73925482771507733     
   48.817777989415589        1.3205164002206067       0.78095122208649359     
   48.807020153273129        1.2950490851818646       0.82186314072337407     
   48.796535152990188        1.2683221848311657       0.86195086673393118     
   48.786314284511157        1.2403619541061253       0.90117570977801209     
   48.776365293029436        1.2111962476581122       0.93950011316865467     
   48.766712294816358        1.1808544425986112       0.97688775263888672     
   48.757395512565012        1.1493673500912771        1.0133036252957777     
   48.748470828777165        1.1167671171822235        1.0487141274758203     
   48.740009164159424        1.0830871204332109        1.0830871204333232     
   48.732095690268999        1.0483618530596885        1.1163919830311611     
   48.724828887707233        1.0126268073753182        1.1485996508547696     
   48.718319462960267       0.97591835440519226        1.1796826414294692     
   48.712689138493843       0.93827362255093349        1.2096150654816473     
   48.708069331904525       0.89973037717311644        1.2383726244399491     
   48.704599740796759       0.86032690290163016        1.2659325946177091     
   48.702426850593717       0.82010189039554604        1.2922737987472162     
   48.701702382709094       0.77909432915420640        1.3173765657457401     
   48.702581700423771       0.73734340783477947        1.3412226797788966     
   48.705222189452101       0.69488842336294243        1.3637953198462651     
   48.709781629579489       0.65176869993744024        1.3850789912453663     
   48.716416572944880       0.60802351883089190        1.4050594503722911     
   48.725280743566081       0.56369205968298841        1.4237236243902789     
   48.736523471609452       0.51881335377273230        1.4410595273421207     
   48.750288174724808       0.47342624954754903        1.4570561742995254     
   48.766710897545920       0.42756939048265069        1.4717034951344465     
   48.785918919231541       0.38128120514699582        1.4849922494658432     
   48.808029437725324       0.33459990916511118        1.4969139442828787     
   48.833148338274150       0.28756351858890844        1.5074607556746562     
   48.861369052684793       0.24020987403189800        1.5166254560097121     
   48.892771514838635       0.19257667477087020        1.5244013478081864     
   48.927421217130707       0.14470152188774074        1.5307822054379860     
   48.965368371763084        9.6621969407064703E-002   1.5357622256456058     
   49.006647180200090        4.8375582282683544E-002   1.5393359878042066     
   49.051275213581107       -1.5940874689350467E-013   1.5414984246277372     
   49.099252906476750       -4.8466995513433704E-002   1.5422448039615280     
   49.150563166050894       -9.6987409030183214E-002   1.5415707221179094     
   49.205171098439365      -0.14552295963257381        1.5394721090808019     
   49.263023853955303      -0.19403500822384570        1.5359452457564817     
   49.324050592560738      -0.24248448640115308        1.5309867932993519     
   49.388162570878848      -0.29083182814995817        1.5245938343918799     
   49.455253351841712      -0.33903690581060070        1.5167639262074080     
   49.525199137845632      -0.38705897174346776        1.5074951646336185     
   49.597859228003578      -0.43485660708038587        1.4967862591837822     
   49.673076599715877      -0.48238767889579443        1.4846366178731409     
   49.750678614310175      -0.52960930706127107        1.4710464411899642     
   49.830477845915141      -0.57647784196041041        1.4560168241462186     
   49.912273032013772      -0.62294885413722567        1.4395498652528951     
   49.995850143269820      -0.66897713682978988        1.4216487811318022     
   50.080983569227044      -0.71451672220143114        1.4023180253511678     
   50.167437415353625      -0.75952091192461191        1.3815634099591800     
   50.254966905648772      -0.80394232259810794        1.3593922280902941     
   50.343319883663597      -0.84773294628726159        1.3358133759366566     
   50.432238403333727      -0.89084422627143389        1.3108374723142264     
   50.521460399504775      -0.93322714786442729        1.2844769740130855     
   50.610721426487615      -0.97483234394535412        1.2567462851067981     
   50.699756451446987       -1.0156102146025474        1.2276618584090491     
   50.788301687945555       -1.0555110600555857        1.1972422873092479     
   50.876096453582527       -1.0944852257848503        1.1655083862939666     
   50.962885034429029       -1.1324832585692002        1.1324832585688485     
   51.048418537915943       -1.1694560719155402        1.0981923493361423     
   51.132456715021313       -1.2053551191647718        1.0626634834554685     
   51.214769732073641       -1.2401325723822232        1.0259268864181565     
   51.295139872269537       -1.2737415049923684       0.98801518779574504     
   51.373363147129368       -1.3061360760023040       0.94896340657738587     
   51.449250798599444       -1.3372717135801948       0.90880891808428310     
   51.522630673365249       -1.3671052957171528       0.86759140243657906     
   51.593348452165472       -1.3955953257061566       0.82535277484310543     
   51.661268718473700       -1.4227021002209010       0.78213709828054312     
   51.726275852825445       -1.4483878678710018       0.73799047941892892     
   51.788274741268758       -1.4726169762464845       0.69296094892806648     
   51.847191288867450       -1.4953560056415029       0.64709832755751895     
   51.902972731826779       -1.5165738878610109       0.60045407961510888     
   51.955587744586325       -1.5362420087598820       0.55308115566956295     
   52.005026341061900       -1.5543342934358764       0.50503382646725370     
   52.051299572056024       -1.5708272732894566       0.45636751017723198     
   52.094439023622897       -1.5857001344676438       0.40713859516020523     
   52.134496123807992       -1.5989347475186397       0.35740426049455942     
   52.171541267622892       -1.6105156783914081       0.30722229648579247     
   52.205662772315002       -1.6204301812129078       0.25665092733606676     
   52.236965676902543       -1.6286681735584172       0.20574863806026436     
   52.265570401540650       -1.6352221951917016       0.15457400760736503     
   52.291611283539339       -1.6400873514864593       0.10318554998535648     
   52.315235007761935       -1.6432612429445921        5.1641564999167791E-002
   52.336598949692338       -1.6447438823973120       -3.4017104015792916E-013
   52.355869449685471       -1.6445376016101052       -5.1681676186837618E-002
   52.373220036825714       -1.6426469491111642      -0.10334658621889965     
   52.388829620443346       -1.6390785811253064      -0.15493854340654228     
   52.402880666715568       -1.6338411475227101      -0.20640213664657697     
   52.415557376943099       -1.6269451746857599      -0.25768280093167173     
   52.427043883091578       -1.6184029471605030      -0.30872687347183014     
   52.437522475061641       -1.6082283898945986      -0.35948163568885877     
   52.447171872945894       -1.5964369527744915      -0.40989534155130347     
   52.456165556287253       -1.5830454990643439      -0.45991723290715913     
   52.464670161110661       -1.5680721992215829      -0.50949754264273672     
   52.472843954291200       -1.5515364314220781      -0.55858748664748603     
   52.480835393678696       -1.5334586899753229      -0.60713924569590294     
   52.488781781344294       -1.5138605026494190      -0.65510593846893550     
   52.496808016366906       -1.4927643577598244      -0.70244158702894999     
   52.505025452750473       -1.4701936417069925      -0.74910107613504717     
   52.513530867361631       -1.4461725874780416      -0.79504010784016099     
   52.522405542204062       -1.4207262344580125      -0.84021515284891124     
   52.531714464894698       -1.3938803997282245      -0.88458340013655934     
   52.541505650869418       -1.3656616608635743      -0.92810270633551761     
   52.551809590606275       -1.3360973500779949      -0.97073154638743742     
   52.562638824996192       -1.3052155594080692       -1.0124289669365221     
   52.573987651889816       -1.2730451564693031       -1.0531545439037369     
   52.585831966782507       -1.2396158101681038       -1.0928683456321189     
   52.598129240537709       -1.2049580256053203       -1.1315309029304121     
   52.610818636964623       -1.1691031872647546       -1.1691031872653594     
   52.623821272928133       -1.1320836094429023       -1.2055465982618152     
   52.637040623449202       -1.0939325927451999       -1.2408229615637760     
   52.650363073919415       -1.0546844853502737       -1.2748945379877941     
   52.663658621081652       -1.0143747476286951       -1.3077240447625735     
   52.676781723789134      -0.97304001859816791       -1.3392746894942102     
   52.689572303731097      -0.93071818260517158       -1.3695102173254798     
   52.701856895285388      -0.88744843454629851       -1.3983949715697033     
   52.713449942416368      -0.84327134188346664       -1.4258939678957501     
   52.724155239078073      -0.79822890166906446       -1.4519729819215637     
   52.733767507910805      -0.75236459078265039       -1.4765986498411336     
   52.742074110147030      -0.70572340759344754       -1.4997385814662820     
   52.748856877594179      -0.65835190330518578       -1.5213614848134451     
   52.753894055367525      -0.61029820131471213       -1.5414373011105176     
   52.756962341751105      -0.56161200302508996       -1.5599373488448156     
   52.757839009218884      -0.51234457869936456       -1.5768344752255778     
   52.756304088314238      -0.46254874212312214       -1.5921032131994692     
   52.752142593831863      -0.41227880806232886       -1.6057199419417103     
   52.745146770646677      -0.36159053175585421       -1.6176630485557946     
   52.735118334667483      -0.31054102996708355       -1.6279130885580522     
   52.721870682837171      -0.25918868343165935       -1.6364529426064471     
   52.705231044932773      -0.20759302087357723       -1.6432679668620471     
   52.685042549206976      -0.15581458511254484       -1.6483461343520274     
   52.661166173720062      -0.10391478214416949       -1.6516781647390759     
   52.633482555583555       -5.1955714432220586E-002  -1.6532576399964285     
   52.601893631308208        5.1357717072165981E-013  -1.6530811036416591     
   52.566324083032349        5.1889420768981273E-002  -1.6511481413950346     
   52.526722567594561       0.10364948839922632       -1.6474614413969244     
   52.483062708180292       0.15521723520915245       -1.6420268324388234     
   52.435343831565724       0.20653000111721356       -1.6348532990272659     
   52.383591437732406       0.25752565154409174       -1.6259529725008146     
   52.327857392748186       0.30814279447790693       -1.6153410978475820     
   52.268219840195847       0.35832099374342213       -1.6030359763131494     
   52.204782830970196       0.40800097555229420       -1.5890588843345528     
   52.137675675832291       0.45712482551394051       -1.5734339697730306     
   52.067052029585170       0.50563617345292045       -1.5561881268345907     
   51.993088719996827       0.55348036360388775       -1.5373508514519021     
   51.915984338533910       0.60060460803302351       -1.5169540792434388     
   51.835957613482272       0.64695812145699050       -1.4950320084576167     
   51.753245589038279       0.69249223598770226       -1.4716209105440763     
   51.668101636392244       0.73716049471330691       -1.4467589311664879     
   51.580793324653435       0.78091872342198843       -1.4204858845787922     
   51.491600180663433       0.82372508017505408       -1.3928430443290218     
   51.400811367313828       0.86554008282879924       -1.3638729332335220     
   51.308723309950061       0.90632661498165901       -1.3336191154828767     
   51.215637299843515       0.94604991117545056       -1.3021259936042875     
   51.121857102608530       0.98467752250033869       -1.2694386128198740     
   51.027686597896341        1.0221792640365812       -1.2356024751138488     
   50.933427474792438        1.0585271458083632       -1.2006633650615335     
   50.839377005158326        1.0936952891232650       -1.1646671891881897     
   50.745825914777242        1.1276598303243617       -1.1276598303235448     
   50.653056369665819        1.1603988140905823       -1.0896870181067524     