 VARIABLES = "x_1", "x_2", "x_3"
 ZONE F = POINT , I =         201  , J =         101
   18133.205968193452        0.0000000000000000        0.0000000000000000     
   18133.205968193452        0.0000000000000000        0.0000000000000000     
   18133.205968193452        0.0000000000000000        0.0000000000000000     
   18133.205968193452        0.0000000000000000        0.0000000000000000     
   18133.205968193452        0.0000000000000000        0.0000000000000000     
   18133.205968193452        0.0000000000000000        0.0000000000000000     
   18133.205968193452        0.0000000000000000        0.0000000000000000     
   18133.205968193452        0.0000000000000000        0.0000000000000000     
   18133.205968193452        0.0000000000000000        0.0000000000000000     
   18133.205968193452        0.0000000000000000        0.0000000000000000     
   18133.205968193452        0.0000000000000000        0.0000000000000000     
   18133.205968193452        0.0000000000000000        0.0000000000000000     
   18133.205968193452        0.0000000000000000        0.0000000000000000     
   18133.205968193452        0.0000000000000000        0.0000000000000000     
   18133.205968193452        0.0000000000000000        0.0000000000000000     
   18133.205968193452        0.0000000000000000        0.0000000000000000     
   18133.205968193452        0.0000000000000000        0.0000000000000000     
   18133.205968193452        0.0000000000000000        0.0000000000000000     
   18133.205968193452        0.0000000000000000        0.0000000000000000     
   18133.205968193452        0.0000000000000000        0.0000000000000000     
   18133.205968193452        0.0000000000000000        0.0000000000000000     
   18133.205968193452        0.0000000000000000        0.0000000000000000     
   18133.205968193452        0.0000000000000000        0.0000000000000000     
   18133.205968193452        0.0000000000000000        0.0000000000000000     
   18133.205968193452        0.0000000000000000        0.0000000000000000     
   18133.205968193452        0.0000000000000000        0.0000000000000000     
   18133.205968193452        0.0000000000000000        0.0000000000000000     
   18133.205968193452        0.0000000000000000        0.0000000000000000     
   18133.205968193452        0.0000000000000000        0.0000000000000000     
   18133.205968193452        0.0000000000000000        0.0000000000000000     
   18133.205968193452        0.0000000000000000        0.0000000000000000     
   18133.205968193452        0.0000000000000000        0.0000000000000000     
   18133.205968193452        0.0000000000000000        0.0000000000000000     
   18133.205968193452        0.0000000000000000        0.0000000000000000     
   18133.205968193452        0.0000000000000000        0.0000000000000000     
   18133.205968193452        0.0000000000000000        0.0000000000000000     
   18133.205968193452        0.0000000000000000        0.0000000000000000     
   18133.205968193452        0.0000000000000000        0.0000000000000000     
   18133.205968193452        0.0000000000000000        0.0000000000000000     
   18133.205968193452        0.0000000000000000        0.0000000000000000     
   18133.205968193452        0.0000000000000000        0.0000000000000000     
   18133.205968193452        0.0000000000000000        0.0000000000000000     
   18133.205968193452        0.0000000000000000        0.0000000000000000     
   18133.205968193452        0.0000000000000000        0.0000000000000000     
   18133.205968193452        0.0000000000000000        0.0000000000000000     
   18133.205968193452        0.0000000000000000        0.0000000000000000     
   18133.205968193452        0.0000000000000000        0.0000000000000000     
   18133.205968193452        0.0000000000000000        0.0000000000000000     
   18133.205968193452        0.0000000000000000        0.0000000000000000     
   18133.205968193452        0.0000000000000000        0.0000000000000000     
   18133.205968193452       -0.0000000000000000        0.0000000000000000     
   18133.205968193452       -0.0000000000000000        0.0000000000000000     
   18133.205968193452       -0.0000000000000000        0.0000000000000000     
   18133.205968193452       -0.0000000000000000        0.0000000000000000     
   18133.205968193452       -0.0000000000000000        0.0000000000000000     
   18133.205968193452       -0.0000000000000000        0.0000000000000000     
   18133.205968193452       -0.0000000000000000        0.0000000000000000     
   18133.205968193452       -0.0000000000000000        0.0000000000000000     
   18133.205968193452       -0.0000000000000000        0.0000000000000000     
   18133.205968193452       -0.0000000000000000        0.0000000000000000     
   18133.205968193452       -0.0000000000000000        0.0000000000000000     
   18133.205968193452       -0.0000000000000000        0.0000000000000000     
   18133.205968193452       -0.0000000000000000        0.0000000000000000     
   18133.205968193452       -0.0000000000000000        0.0000000000000000     
   18133.205968193452       -0.0000000000000000        0.0000000000000000     
   18133.205968193452       -0.0000000000000000        0.0000000000000000     
   18133.205968193452       -0.0000000000000000        0.0000000000000000     
   18133.205968193452       -0.0000000000000000        0.0000000000000000     
   18133.205968193452       -0.0000000000000000        0.0000000000000000     
   18133.205968193452       -0.0000000000000000        0.0000000000000000     
   18133.205968193452       -0.0000000000000000        0.0000000000000000     
   18133.205968193452       -0.0000000000000000        0.0000000000000000     
   18133.205968193452       -0.0000000000000000        0.0000000000000000     
   18133.205968193452       -0.0000000000000000        0.0000000000000000     
   18133.205968193452       -0.0000000000000000        0.0000000000000000     
   18133.205968193452       -0.0000000000000000        0.0000000000000000     
   18133.205968193452       -0.0000000000000000        0.0000000000000000     
   18133.205968193452       -0.0000000000000000        0.0000000000000000     
   18133.205968193452       -0.0000000000000000        0.0000000000000000     
   18133.205968193452       -0.0000000000000000        0.0000000000000000     
   18133.205968193452       -0.0000000000000000        0.0000000000000000     
   18133.205968193452       -0.0000000000000000        0.0000000000000000     
   18133.205968193452       -0.0000000000000000        0.0000000000000000     
   18133.205968193452       -0.0000000000000000        0.0000000000000000     
   18133.205968193452       -0.0000000000000000        0.0000000000000000     
   18133.205968193452       -0.0000000000000000        0.0000000000000000     
   18133.205968193452       -0.0000000000000000        0.0000000000000000     
   18133.205968193452       -0.0000000000000000        0.0000000000000000     
   18133.205968193452       -0.0000000000000000        0.0000000000000000     
   18133.205968193452       -0.0000000000000000        0.0000000000000000     
   18133.205968193452       -0.0000000000000000        0.0000000000000000     
   18133.205968193452       -0.0000000000000000        0.0000000000000000     
   18133.205968193452       -0.0000000000000000        0.0000000000000000     
   18133.205968193452       -0.0000000000000000        0.0000000000000000     
   18133.205968193452       -0.0000000000000000        0.0000000000000000     
   18133.205968193452       -0.0000000000000000        0.0000000000000000     
   18133.205968193452       -0.0000000000000000        0.0000000000000000     
   18133.205968193452       -0.0000000000000000        0.0000000000000000     
   18133.205968193452       -0.0000000000000000        0.0000000000000000     
   18133.205968193452       -0.0000000000000000        0.0000000000000000     
   18133.205968193452       -0.0000000000000000       -0.0000000000000000     
   18133.205968193452       -0.0000000000000000       -0.0000000000000000     
   18133.205968193452       -0.0000000000000000       -0.0000000000000000     
   18133.205968193452       -0.0000000000000000       -0.0000000000000000     
   18133.205968193452       -0.0000000000000000       -0.0000000000000000     
   18133.205968193452       -0.0000000000000000       -0.0000000000000000     
   18133.205968193452       -0.0000000000000000       -0.0000000000000000     
   18133.205968193452       -0.0000000000000000       -0.0000000000000000     
   18133.205968193452       -0.0000000000000000       -0.0000000000000000     
   18133.205968193452       -0.0000000000000000       -0.0000000000000000     
   18133.205968193452       -0.0000000000000000       -0.0000000000000000     
   18133.205968193452       -0.0000000000000000       -0.0000000000000000     
   18133.205968193452       -0.0000000000000000       -0.0000000000000000     
   18133.205968193452       -0.0000000000000000       -0.0000000000000000     
   18133.205968193452       -0.0000000000000000       -0.0000000000000000     
   18133.205968193452       -0.0000000000000000       -0.0000000000000000     
   18133.205968193452       -0.0000000000000000       -0.0000000000000000     
   18133.205968193452       -0.0000000000000000       -0.0000000000000000     
   18133.205968193452       -0.0000000000000000       -0.0000000000000000     
   18133.205968193452       -0.0000000000000000       -0.0000000000000000     
   18133.205968193452       -0.0000000000000000       -0.0000000000000000     
   18133.205968193452       -0.0000000000000000       -0.0000000000000000     
   18133.205968193452       -0.0000000000000000       -0.0000000000000000     
   18133.205968193452       -0.0000000000000000       -0.0000000000000000     
   18133.205968193452       -0.0000000000000000       -0.0000000000000000     
   18133.205968193452       -0.0000000000000000       -0.0000000000000000     
   18133.205968193452       -0.0000000000000000       -0.0000000000000000     
   18133.205968193452       -0.0000000000000000       -0.0000000000000000     
   18133.205968193452       -0.0000000000000000       -0.0000000000000000     
   18133.205968193452       -0.0000000000000000       -0.0000000000000000     
   18133.205968193452       -0.0000000000000000       -0.0000000000000000     
   18133.205968193452       -0.0000000000000000       -0.0000000000000000     
   18133.205968193452       -0.0000000000000000       -0.0000000000000000     
   18133.205968193452       -0.0000000000000000       -0.0000000000000000     
   18133.205968193452       -0.0000000000000000       -0.0000000000000000     
   18133.205968193452       -0.0000000000000000       -0.0000000000000000     
   18133.205968193452       -0.0000000000000000       -0.0000000000000000     
   18133.205968193452       -0.0000000000000000       -0.0000000000000000     
   18133.205968193452       -0.0000000000000000       -0.0000000000000000     
   18133.205968193452       -0.0000000000000000       -0.0000000000000000     
   18133.205968193452       -0.0000000000000000       -0.0000000000000000     
   18133.205968193452       -0.0000000000000000       -0.0000000000000000     
   18133.205968193452       -0.0000000000000000       -0.0000000000000000     
   18133.205968193452       -0.0000000000000000       -0.0000000000000000     
   18133.205968193452       -0.0000000000000000       -0.0000000000000000     
   18133.205968193452       -0.0000000000000000       -0.0000000000000000     
   18133.205968193452       -0.0000000000000000       -0.0000000000000000     
   18133.205968193452       -0.0000000000000000       -0.0000000000000000     
   18133.205968193452       -0.0000000000000000       -0.0000000000000000     
   18133.205968193452       -0.0000000000000000       -0.0000000000000000     
   18133.205968193452        0.0000000000000000       -0.0000000000000000     
   18133.205968193452        0.0000000000000000       -0.0000000000000000     
   18133.205968193452        0.0000000000000000       -0.0000000000000000     
   18133.205968193452        0.0000000000000000       -0.0000000000000000     
   18133.205968193452        0.0000000000000000       -0.0000000000000000     
   18133.205968193452        0.0000000000000000       -0.0000000000000000     
   18133.205968193452        0.0000000000000000       -0.0000000000000000     
   18133.205968193452        0.0000000000000000       -0.0000000000000000     
   18133.205968193452        0.0000000000000000       -0.0000000000000000     
   18133.205968193452        0.0000000000000000       -0.0000000000000000     
   18133.205968193452        0.0000000000000000       -0.0000000000000000     
   18133.205968193452        0.0000000000000000       -0.0000000000000000     
   18133.205968193452        0.0000000000000000       -0.0000000000000000     
   18133.205968193452        0.0000000000000000       -0.0000000000000000     
   18133.205968193452        0.0000000000000000       -0.0000000000000000     
   18133.205968193452        0.0000000000000000       -0.0000000000000000     
   18133.205968193452        0.0000000000000000       -0.0000000000000000     
   18133.205968193452        0.0000000000000000       -0.0000000000000000     
   18133.205968193452        0.0000000000000000       -0.0000000000000000     
   18133.205968193452        0.0000000000000000       -0.0000000000000000     
   18133.205968193452        0.0000000000000000       -0.0000000000000000     
   18133.205968193452        0.0000000000000000       -0.0000000000000000     
   18133.205968193452        0.0000000000000000       -0.0000000000000000     
   18133.205968193452        0.0000000000000000       -0.0000000000000000     
   18133.205968193452        0.0000000000000000       -0.0000000000000000     
   18133.205968193452        0.0000000000000000       -0.0000000000000000     
   18133.205968193452        0.0000000000000000       -0.0000000000000000     
   18133.205968193452        0.0000000000000000       -0.0000000000000000     
   18133.205968193452        0.0000000000000000       -0.0000000000000000     
   18133.205968193452        0.0000000000000000       -0.0000000000000000     
   18133.205968193452        0.0000000000000000       -0.0000000000000000     
   18133.205968193452        0.0000000000000000       -0.0000000000000000     
   18133.205968193452        0.0000000000000000       -0.0000000000000000     
   18133.205968193452        0.0000000000000000       -0.0000000000000000     
   18133.205968193452        0.0000000000000000       -0.0000000000000000     
   18133.205968193452        0.0000000000000000       -0.0000000000000000     
   18133.205968193452        0.0000000000000000       -0.0000000000000000     
   18133.205968193452        0.0000000000000000       -0.0000000000000000     
   18133.205968193452        0.0000000000000000       -0.0000000000000000     
   18133.205968193452        0.0000000000000000       -0.0000000000000000     
   18133.205968193452        0.0000000000000000       -0.0000000000000000     
   18133.205968193452        0.0000000000000000       -0.0000000000000000     
   18133.205968193452        0.0000000000000000       -0.0000000000000000     
   18133.205968193452        0.0000000000000000       -0.0000000000000000     
   18133.205968193452        0.0000000000000000       -0.0000000000000000     
   18133.205968193452        0.0000000000000000       -0.0000000000000000     
   18133.205968193452        0.0000000000000000       -0.0000000000000000     
   18133.205968193452        0.0000000000000000       -0.0000000000000000     
   18133.205968193452        0.0000000000000000       -0.0000000000000000     
   18133.205968193452        0.0000000000000000       -0.0000000000000000     
   18133.205968193452        0.0000000000000000        0.0000000000000000     
   18098.801289114814        568.77774437750622        0.0000000000000000     
   18096.463678700657        568.42366077780298        17.863433188940000     
   18094.147807341738        567.50943844197116        35.704667482884602     
   18091.855236679996        566.03616889526393        53.506171414702628     
   18089.587517931537        564.00549077606593        71.250463089937355     
   18087.346193164831        561.41958770404938        88.920127185743738     
   18085.132796519298        558.28118562139093        106.49783186396490     
   18082.948855352271        554.59354960985343        123.96634558174458     
   18080.795891302823        550.36048018711324        141.30855378308732     
   18078.675421261229        545.58630908629675        158.50747545482062     
   18076.588958233631        540.27589452329903        175.54627953048441     
   18074.538012091922        534.43461595705116        192.40830112577515     
   18072.524090199557        528.06836834851970        209.07705758930621     
   18070.548697904702        521.18355592482646        225.53626435261140     
   18068.613338892766        513.78708545548852        241.76985056351782     
   18066.719515391305        505.88635904838537        257.76197448724832     
   18064.868728220852        497.48926647365300        273.49703865988090     
   18063.062476686217        488.60417702430431        288.95970477909208     
   18061.302258303571        479.23993092294052        304.13490831744758     
   18059.589568359475        469.40583028449311        319.00787284386968     
   18057.925899298967        459.11162964547179        333.56412403931108     
   18056.312739940564        448.36752607072077        347.78950339309250     
   18054.751574517108        437.18414884919360        361.67018156682644     
   18053.243881542130        425.57254879072275        375.19267141332762     
   18051.791132502407        413.54418713621902        388.34384063843441     
   18050.394790378155        401.11092409414965        401.11092409419120     
   18049.056307993331        388.28500701653496        413.48153569240714     
   18047.777126199257        375.07905822805697        425.44367992818229     
   18046.558671895658        361.50606252219461        436.98576300357820     
   18045.402355894108        347.57935433858546        448.09660354222905     
   18044.309570629575        333.31260463606264        458.76544288629282     
   18043.281687726529        318.71980747602220        468.98195496777481     
   18042.320055427022        303.81526633095893        478.73625574688435     
   18041.425995888523        288.61358013313350        488.01891221071219     
   18040.600802360248        273.12962907843996        496.82095092614742     
   18039.845736247309        257.37856020060195        505.13386614158145     
   18039.162024072408        241.37577273084602        512.94962743255542     
   18038.550854345678        225.13690325819974        520.26068688712360     
   18038.013374353501        208.67781070550799        527.05998582729467     
   18037.550686877708        192.01456113618923        533.34096106349011     
   18037.163846857042        175.16341240664624        539.09755067952653     
   18036.853858003011        158.14079867910641        544.32419934615837     
   18036.621669382697        140.96331480950568        549.01586316174860     
   18036.468171981236        123.64770062484207        553.16801401911528     
   18036.394195257042        106.21082510421613        556.77664349808072     
   18036.400503702862        88.669670477546035        559.83826628368092     
   18036.487793426124        71.041316255701261        562.34992311041685     
   18036.656688761690        53.342923205540067        564.30918323329513     
   18036.907738930673        35.591717283066707        565.71414642677632     
   18037.241414758577        17.804973537647310        566.56344451305870     
   18037.658105465980       -5.8619484671209568E-011   566.85624242142046     
   18038.158115545175       -17.805878434077183        566.59223878060959     
   18038.741661735512       -35.595336110919256        565.77166604649358     
   18039.408870110525       -53.351062707387861        564.39529016739436     
   18040.159773289233       -71.055779286853891        562.46440978970088     
   18040.994307783978       -88.692254312725254        559.98085500650063     
   18041.912311496759       -106.24331960808294        556.94698565210138     
   18042.913521375558       -123.69188625069725        553.36568914540157     
   18043.997571241944       -141.02096039285806        549.24037788515705     
   18045.163989800603       -158.21365899565481        544.57498620024080     
   18046.412198841081       -175.25322546752605        539.37396685803958     
   18047.741511641492       -192.12304519705734        533.64228713415139     
   18049.151131583330       -208.80666097014765        527.38542444656446     
   18050.640150986128       -225.28778826177472        520.60936155750528     
   18052.207550169867       -241.55033039268022        513.32058134613101     
   18053.852196752669       -257.57839354136155        505.52606115524816     
   18055.572845190396       -273.35630160178880        497.23326671521960     
   18057.368136564361       -288.86861087728363        488.45014564822583     
   18059.236598622476       -304.10012460097767        479.18512055604174     
   18061.176646078526       -319.03590727323211        469.44708169450007     
   18063.186581173471       -333.66129880633360        459.24537923782776     
   18065.264594502052       -347.96192846669783        448.58981513608200     
   18067.408766107052       -361.92372860470078        437.49063456895323     
   18069.617066842831       -375.53294816212809        425.95851699927636     
   18071.887360009183       -388.77616594708752        414.00456682968354     
   18074.217403255218       -401.64030366606073        401.64030366593596     
   18076.604850752912       -414.11263870259626        388.87765219063124     
   18079.047255638503       -426.18081663195130        375.72893165113453     
   18081.542072719345       -437.83286346079075        362.20684496579048     
   18084.086661443198       -449.05719758084996        348.32446745270556     
   18086.678289125688       -459.84264142525245        334.09523518564930     
   18089.314134431286       -470.17843281597169        319.53293298192693     
   18091.991291101989       -480.05423599071503        304.65168202740608     
   18094.706771927224       -489.46015229731142        289.46592714425060     
   18097.457512947898       -498.38673054350392        273.99042370732309     
   18100.240377886163       -506.82497698985514        258.24022421564729     
   18103.052162792359       -514.76636497334198        242.23066452581241     
   18105.889600899314       -522.20284414905757        225.97734975469587     
   18108.749367673743       -529.12684933734420        209.49613985943498     
   18111.628086053581       -535.53130896358778        192.80313490314819     
   18114.522331859491       -541.40965307785871        175.91466001550947     
   18117.428639368074       -546.75582094156573        158.84725005791992     
   18120.343507033715       -551.56426816831083        141.61763400367232     
   18123.263403345190       -555.82997340619454        124.24271904419021     
   18126.184772802986       -559.54844454893214        106.73957443312594     
   18129.104042002204       -562.71572446328707        89.125415080820275     
   18132.017625805962       -565.32839622053450        71.417584912361193     
   18134.921933593298       -567.38358781991656        53.633540003221533     
   18137.813375565569       -568.87897639235939        35.790831507206377     
   18140.688369094572       -569.81279187307484        17.907088392191124     
   18143.543345095695       -570.18382013208804       -1.1792718930369011E-010
   18146.374754408906       -569.99140555220140       -17.912701553426309     
   18149.179074170228       -569.23545304442621       -35.813259117391176     
   18151.952814156281       -567.91642949150128       -53.683908371035287     
   18154.692523084388       -566.03536461075373       -71.506895789916371     
   18157.394794850556       -563.59385122824574       -89.264496697261322     
   18160.056274688002       -560.59404495690842       -106.93903337863168     
   18162.673665228689       -557.03866327215201       -124.51289323908307     
   18165.243732450614       -552.93098397929907       -141.96854698120245     
   18167.763311494120       -548.27484306808890       -159.28856678189078     
   18170.229312330153       -543.07463195043249       -176.45564444526860     
   18172.638725264558       -537.33529407860158       -193.45260950865918     
   18174.988626262260       -531.06232094204665       -210.26244727822333     
   18177.276182076155       -524.26174744210948       -226.86831677050691     
   18179.498655165764       -516.94014664498093       -243.25356853590020     
   18181.653408391696       -509.10462391438500       -259.40176233982169     
   18183.737909472169       -500.76281042659809       -275.29668467730494     
   18185.749735189136       -491.92285607158487       -290.92236609661529     
   18187.686575331987       -482.59342174520123       -306.26309830753155     
   18189.546236367667       -472.78367103858579       -321.30345105000833     
   18191.326644827303       -462.50326133206289       -336.02828869909661     
   18193.025850399874       -451.76233430203655       -350.42278658221682     
   18194.642028724964       -440.57150585054643       -364.47244698519290     
   18196.173483877261       -428.94185546829902       -378.16311482381042     
   18197.618650536810       -416.88491504313487       -391.48099295812000     
   18198.976095839971       -404.41265712700061       -404.41265712720991     
   18200.244520907210       -391.53748267558240       -416.94507048275517     
   18201.422762045124       -378.27220827580760       -429.06559770029901     
   18202.509791620818       -364.63005287742618       -440.76201864792176     
   18203.504718608645       -350.62462404586262       -452.02254159273525     
   18204.406788809702       -336.26990375443603       -462.83581592644913     
   18205.215384746218       -321.58023373491801       -473.19094439214950     
   18205.930025233887       -306.57030040622016       -483.07749479533936     
   18206.550364636354       -291.25511940173419       -492.48551118327958     
   18207.076191807271       -275.65001971656852       -501.40552447766009     
   18207.507428726320       -259.77062749652299       -509.82856254669349     
   18207.844128836881       -243.63284949123684       -517.74615970378409     
   18208.086475093853       -227.25285619441047       -525.15036562103808     
   18208.234777731235       -210.64706469445369       -532.03375364698775     
   18208.289471760127       -193.83212125924760       -538.38942851905074     
   18208.251114208470       -176.82488367901587       -544.21103346237203     
   18208.120381115157       -159.64240339149802       -549.49275666786946     
   18207.898064291257       -142.30190741378763       -554.22933714341491     
   18207.585067862725       -124.82078010525773       -558.41606993326525     
   18207.182404608811       -107.21654478603595       -562.04881070195188     
   18206.691192111608       -89.506845235413579       -565.12397967997458     
   18206.112648732418       -71.709427094492838       -567.63856496973415     
   18205.448089431178       -53.842119197176004       -569.59012521120349     
   18204.698921445673       -35.922814853391408       -570.97679160789380     
   18203.866639847471       -17.969453108168093       -571.79726931466894     
   18202.952822991811        1.7772403927389720E-010  -572.05083818994808     
   18201.959127879047        17.967570159831332       -571.73735291577884     
   18200.887285444987        35.915293460784220       -570.85724249014982     
   18199.739095797890        53.825235003622659       -569.41150909678288     
   18198.516423419635        71.679507420295991       -567.40172635845340     
   18197.221192348385        89.460289285852980       -564.83003698065033     
   18195.855381360201        107.14984340072034       -561.69914979311875     
   18194.421019166453        124.73053492363788       -558.01233619749564     
   18192.920179643672        142.18484933599120       -553.77342602987858     
   18191.354977112267        159.49541021885710       -548.98680284775116     
   18189.727561679658        176.64499682472422       -543.65739865121611     
   18188.040114663385        193.61656142644725       -537.79068804898679     
   18186.294844108616        210.39324642664201       -531.39268188001677     
   18184.493980414263        226.95840121134077       -524.46992030206320     
   18182.639772080969        243.29559873234720       -517.02946535883086     
   18180.734481593587        259.38865180336080       -509.07889303766336     
   18178.780381449938        275.22162909552259       -500.62628483004261     
   18176.779750346821        290.77887081865055       -491.68021880738888     
   18174.734869533309        306.04500407498944       -482.24976022489136     
   18172.648019340588        321.00495787288639       -472.34445166626841     
   18170.521475896501        335.64397778832335       -461.97430274253497     
   18168.357508032044        349.94764026279023       -451.14977935797452     
   18166.158374386217        363.90186652646730       -439.88179255665375     
   18163.926320714298        377.49293613619034       -428.18168696288899     
   18161.663577403964        390.70750011812504       -416.06122882918913     
   18159.372357202443        403.53259370553883       -403.53259370524654     
   18157.054853156820        415.95564866246644       -390.60835374163071     