 VARIABLES = "x_1", "x_2", "x_3"
 ZONE F = POINT , I = 201  , J = 101
 282742.705570291728 0.000000000000000000E+00 0.000000000000000000E+00
 282742.705570291728 0.000000000000000000E+00 0.000000000000000000E+00
 282742.705570291728 0.000000000000000000E+00 0.000000000000000000E+00
 282742.705570291728 0.000000000000000000E+00 0.000000000000000000E+00
 282742.705570291728 0.000000000000000000E+00 0.000000000000000000E+00
 282742.705570291728 0.000000000000000000E+00 0.000000000000000000E+00
 282742.705570291728 0.000000000000000000E+00 0.000000000000000000E+00
 282742.705570291728 0.000000000000000000E+00 0.000000000000000000E+00
 282742.705570291728 0.000000000000000000E+00 0.000000000000000000E+00
 282742.705570291728 0.000000000000000000E+00 0.000000000000000000E+00
 282742.705570291728 0.000000000000000000E+00 0.000000000000000000E+00
 282742.705570291728 0.000000000000000000E+00 0.000000000000000000E+00
 282742.705570291728 0.000000000000000000E+00 0.000000000000000000E+00
 282742.705570291728 0.000000000000000000E+00 0.000000000000000000E+00
 282742.705570291728 0.000000000000000000E+00 0.000000000000000000E+00
 282742.705570291728 0.000000000000000000E+00 0.000000000000000000E+00
 282742.705570291728 0.000000000000000000E+00 0.000000000000000000E+00
 282742.705570291728 0.000000000000000000E+00 0.000000000000000000E+00
 282742.705570291728 0.000000000000000000E+00 0.000000000000000000E+00
 282742.705570291728 0.000000000000000000E+00 0.000000000000000000E+00
 282742.705570291728 0.000000000000000000E+00 0.000000000000000000E+00
 282742.705570291728 0.000000000000000000E+00 0.000000000000000000E+00
 282742.705570291728 0.000000000000000000E+00 0.000000000000000000E+00
 282742.705570291728 0.000000000000000000E+00 0.000000000000000000E+00
 282742.705570291728 0.000000000000000000E+00 0.000000000000000000E+00
 282742.705570291728 0.000000000000000000E+00 0.000000000000000000E+00
 282742.705570291728 0.000000000000000000E+00 0.000000000000000000E+00
 282742.705570291728 0.000000000000000000E+00 0.000000000000000000E+00
 282742.705570291728 0.000000000000000000E+00 0.000000000000000000E+00
 282742.705570291728 0.000000000000000000E+00 0.000000000000000000E+00
 282742.705570291728 0.000000000000000000E+00 0.000000000000000000E+00
 282742.705570291728 0.000000000000000000E+00 0.000000000000000000E+00
 282742.705570291728 0.000000000000000000E+00 0.000000000000000000E+00
 282742.705570291728 0.000000000000000000E+00 0.000000000000000000E+00
 282742.705570291728 0.000000000000000000E+00 0.000000000000000000E+00
 282742.705570291728 0.000000000000000000E+00 0.000000000000000000E+00
 282742.705570291728 0.000000000000000000E+00 0.000000000000000000E+00
 282742.705570291728 0.000000000000000000E+00 0.000000000000000000E+00
 282742.705570291728 0.000000000000000000E+00 0.000000000000000000E+00
 282742.705570291728 0.000000000000000000E+00 0.000000000000000000E+00
 282742.705570291728 0.000000000000000000E+00 0.000000000000000000E+00
 282742.705570291728 0.000000000000000000E+00 0.000000000000000000E+00
 282742.705570291728 0.000000000000000000E+00 0.000000000000000000E+00
 282742.705570291728 0.000000000000000000E+00 0.000000000000000000E+00
 282742.705570291728 0.000000000000000000E+00 0.000000000000000000E+00
 282742.705570291728 0.000000000000000000E+00 0.000000000000000000E+00
 282742.705570291728 0.000000000000000000E+00 0.000000000000000000E+00
 282742.705570291728 0.000000000000000000E+00 0.000000000000000000E+00
 282742.705570291728 0.000000000000000000E+00 0.000000000000000000E+00
 282742.705570291728 0.000000000000000000E+00 0.000000000000000000E+00
 282742.705570291728 0.000000000000000000E+00 0.000000000000000000E+00
 282742.705570291728 0.000000000000000000E+00 0.000000000000000000E+00
 282742.705570291728 0.000000000000000000E+00 0.000000000000000000E+00
 282742.705570291728 0.000000000000000000E+00 0.000000000000000000E+00
 282742.705570291728 0.000000000000000000E+00 0.000000000000000000E+00
 282742.705570291728 0.000000000000000000E+00 0.000000000000000000E+00
 282742.705570291728 0.000000000000000000E+00 0.000000000000000000E+00
 282742.705570291728 0.000000000000000000E+00 0.000000000000000000E+00
 282742.705570291728 0.000000000000000000E+00 0.000000000000000000E+00
 282742.705570291728 0.000000000000000000E+00 0.000000000000000000E+00
 282742.705570291728 0.000000000000000000E+00 0.000000000000000000E+00
 282742.705570291728 0.000000000000000000E+00 0.000000000000000000E+00
 282742.705570291728 0.000000000000000000E+00 0.000000000000000000E+00
 282742.705570291728 0.000000000000000000E+00 0.000000000000000000E+00
 282742.705570291728 0.000000000000000000E+00 0.000000000000000000E+00
 282742.705570291728 0.000000000000000000E+00 0.000000000000000000E+00
 282742.705570291728 0.000000000000000000E+00 0.000000000000000000E+00
 282742.705570291728 0.000000000000000000E+00 0.000000000000000000E+00
 282742.705570291728 0.000000000000000000E+00 0.000000000000000000E+00
 282742.705570291728 0.000000000000000000E+00 0.000000000000000000E+00
 282742.705570291728 0.000000000000000000E+00 0.000000000000000000E+00
 282742.705570291728 0.000000000000000000E+00 0.000000000000000000E+00
 282742.705570291728 0.000000000000000000E+00 0.000000000000000000E+00
 282742.705570291728 0.000000000000000000E+00 0.000000000000000000E+00
 282742.705570291728 0.000000000000000000E+00 0.000000000000000000E+00
 282742.705570291728 0.000000000000000000E+00 0.000000000000000000E+00
 282742.705570291728 0.000000000000000000E+00 0.000000000000000000E+00
 282742.705570291728 0.000000000000000000E+00 0.000000000000000000E+00
 282742.705570291728 0.000000000000000000E+00 0.000000000000000000E+00
 282742.705570291728 0.000000000000000000E+00 0.000000000000000000E+00
 282742.705570291728 0.000000000000000000E+00 0.000000000000000000E+00
 282742.705570291728 0.000000000000000000E+00 0.000000000000000000E+00
 282742.705570291728 0.000000000000000000E+00 0.000000000000000000E+00
 282742.705570291728 0.000000000000000000E+00 0.000000000000000000E+00
 282742.705570291728 0.000000000000000000E+00 0.000000000000000000E+00
 282742.705570291728 0.000000000000000000E+00 0.000000000000000000E+00
 282742.705570291728 0.000000000000000000E+00 0.000000000000000000E+00
 282742.705570291728 0.000000000000000000E+00 0.000000000000000000E+00
 282742.705570291728 0.000000000000000000E+00 0.000000000000000000E+00
 282742.705570291728 0.000000000000000000E+00 0.000000000000000000E+00
 282742.705570291728 0.000000000000000000E+00 0.000000000000000000E+00
 282742.705570291728 0.000000000000000000E+00 0.000000000000000000E+00
 282742.705570291728 0.000000000000000000E+00 0.000000000000000000E+00
 282742.705570291728 0.000000000000000000E+00 0.000000000000000000E+00
 282742.705570291728 0.000000000000000000E+00 0.000000000000000000E+00
 282742.705570291728 0.000000000000000000E+00 0.000000000000000000E+00
 282742.705570291728 0.000000000000000000E+00 0.000000000000000000E+00
 282742.705570291728 0.000000000000000000E+00 0.000000000000000000E+00
 282742.705570291728 0.000000000000000000E+00 0.000000000000000000E+00
 282742.705570291728 0.000000000000000000E+00 0.000000000000000000E+00
 282742.705570291728 0.000000000000000000E+00 0.000000000000000000E+00
 282742.705570291728 0.000000000000000000E+00 0.000000000000000000E+00
 282742.705570291728 0.000000000000000000E+00 0.000000000000000000E+00
 282742.705570291728 0.000000000000000000E+00 0.000000000000000000E+00
 282742.705570291728 0.000000000000000000E+00 0.000000000000000000E+00
 282742.705570291728 0.000000000000000000E+00 0.000000000000000000E+00
 282742.705570291728 0.000000000000000000E+00 0.000000000000000000E+00
 282742.705570291728 0.000000000000000000E+00 0.000000000000000000E+00
 282742.705570291728 0.000000000000000000E+00 0.000000000000000000E+00
 282742.705570291728 0.000000000000000000E+00 0.000000000000000000E+00
 282742.705570291728 0.000000000000000000E+00 0.000000000000000000E+00
 282742.705570291728 0.000000000000000000E+00 0.000000000000000000E+00
 282742.705570291728 0.000000000000000000E+00 0.000000000000000000E+00
 282742.705570291728 0.000000000000000000E+00 0.000000000000000000E+00
 282742.705570291728 0.000000000000000000E+00 0.000000000000000000E+00
 282742.705570291728 0.000000000000000000E+00 0.000000000000000000E+00
 282742.705570291728 0.000000000000000000E+00 0.000000000000000000E+00
 282742.705570291728 0.000000000000000000E+00 0.000000000000000000E+00
 282742.705570291728 0.000000000000000000E+00 0.000000000000000000E+00
 282742.705570291728 0.000000000000000000E+00 0.000000000000000000E+00
 282742.705570291728 0.000000000000000000E+00 0.000000000000000000E+00
 282742.705570291728 0.000000000000000000E+00 0.000000000000000000E+00
 282742.705570291728 0.000000000000000000E+00 0.000000000000000000E+00
 282742.705570291728 0.000000000000000000E+00 0.000000000000000000E+00
 282742.705570291728 0.000000000000000000E+00 0.000000000000000000E+00
 282742.705570291728 0.000000000000000000E+00 0.000000000000000000E+00
 282742.705570291728 0.000000000000000000E+00 0.000000000000000000E+00
 282742.705570291728 0.000000000000000000E+00 0.000000000000000000E+00
 282742.705570291728 0.000000000000000000E+00 0.000000000000000000E+00
 282742.705570291728 0.000000000000000000E+00 0.000000000000000000E+00
 282742.705570291728 0.000000000000000000E+00 0.000000000000000000E+00
 282742.705570291728 0.000000000000000000E+00 0.000000000000000000E+00
 282742.705570291728 0.000000000000000000E+00 0.000000000000000000E+00
 282742.705570291728 0.000000000000000000E+00 0.000000000000000000E+00
 282742.705570291728 0.000000000000000000E+00 0.000000000000000000E+00
 282742.705570291728 0.000000000000000000E+00 0.000000000000000000E+00
 282742.705570291728 0.000000000000000000E+00 0.000000000000000000E+00
 282742.705570291728 0.000000000000000000E+00 0.000000000000000000E+00
 282742.705570291728 0.000000000000000000E+00 0.000000000000000000E+00
 282742.705570291728 0.000000000000000000E+00 0.000000000000000000E+00
 282742.705570291728 0.000000000000000000E+00 0.000000000000000000E+00
 282742.705570291728 0.000000000000000000E+00 0.000000000000000000E+00
 282742.705570291728 0.000000000000000000E+00 0.000000000000000000E+00
 282742.705570291728 0.000000000000000000E+00 0.000000000000000000E+00
 282742.705570291728 0.000000000000000000E+00 0.000000000000000000E+00
 282742.705570291728 0.000000000000000000E+00 0.000000000000000000E+00
 282742.705570291728 0.000000000000000000E+00 0.000000000000000000E+00
 282742.705570291728 0.000000000000000000E+00 0.000000000000000000E+00
 282742.705570291728 0.000000000000000000E+00 0.000000000000000000E+00
 282742.705570291728 0.000000000000000000E+00 0.000000000000000000E+00
 282742.705570291728 0.000000000000000000E+00 0.000000000000000000E+00
 282742.705570291728 0.000000000000000000E+00 0.000000000000000000E+00
 282742.705570291728 0.000000000000000000E+00 0.000000000000000000E+00
 282742.705570291728 0.000000000000000000E+00 0.000000000000000000E+00
 282742.705570291728 0.000000000000000000E+00 0.000000000000000000E+00
 282742.705570291728 0.000000000000000000E+00 0.000000000000000000E+00
 282742.705570291728 0.000000000000000000E+00 0.000000000000000000E+00
 282742.705570291728 0.000000000000000000E+00 0.000000000000000000E+00
 282742.705570291728 0.000000000000000000E+00 0.000000000000000000E+00
 282742.705570291728 0.000000000000000000E+00 0.000000000000000000E+00
 282742.705570291728 0.000000000000000000E+00 0.000000000000000000E+00
 282742.705570291728 0.000000000000000000E+00 0.000000000000000000E+00
 282742.705570291728 0.000000000000000000E+00 0.000000000000000000E+00
 282742.705570291728 0.000000000000000000E+00 0.000000000000000000E+00
 282742.705570291728 0.000000000000000000E+00 0.000000000000000000E+00
 282742.705570291728 0.000000000000000000E+00 0.000000000000000000E+00
 282742.705570291728 0.000000000000000000E+00 0.000000000000000000E+00
 282742.705570291728 0.000000000000000000E+00 0.000000000000000000E+00
 282742.705570291728 0.000000000000000000E+00 0.000000000000000000E+00
 282742.705570291728 0.000000000000000000E+00 0.000000000000000000E+00
 282742.705570291728 0.000000000000000000E+00 0.000000000000000000E+00
 282742.705570291728 0.000000000000000000E+00 0.000000000000000000E+00
 282742.705570291728 0.000000000000000000E+00 0.000000000000000000E+00
 282742.705570291728 0.000000000000000000E+00 0.000000000000000000E+00
 282742.705570291728 0.000000000000000000E+00 0.000000000000000000E+00
 282742.705570291728 0.000000000000000000E+00 0.000000000000000000E+00
 282742.705570291728 0.000000000000000000E+00 0.000000000000000000E+00
 282742.705570291728 0.000000000000000000E+00 0.000000000000000000E+00
 282742.705570291728 0.000000000000000000E+00 0.000000000000000000E+00
 282742.705570291728 0.000000000000000000E+00 0.000000000000000000E+00
 282742.705570291728 0.000000000000000000E+00 0.000000000000000000E+00
 282742.705570291728 0.000000000000000000E+00 0.000000000000000000E+00
 282742.705570291728 0.000000000000000000E+00 0.000000000000000000E+00
 282742.705570291728 0.000000000000000000E+00 0.000000000000000000E+00
 282742.705570291728 0.000000000000000000E+00 0.000000000000000000E+00
 282742.705570291728 0.000000000000000000E+00 0.000000000000000000E+00
 282742.705570291728 0.000000000000000000E+00 0.000000000000000000E+00
 282742.705570291728 0.000000000000000000E+00 0.000000000000000000E+00
 282742.705570291728 0.000000000000000000E+00 0.000000000000000000E+00
 282742.705570291728 0.000000000000000000E+00 0.000000000000000000E+00
 282742.705570291728 0.000000000000000000E+00 0.000000000000000000E+00
 282742.705570291728 0.000000000000000000E+00 0.000000000000000000E+00
 282742.705570291728 0.000000000000000000E+00 0.000000000000000000E+00
 282742.705570291728 0.000000000000000000E+00 0.000000000000000000E+00
 282742.705570291728 0.000000000000000000E+00 0.000000000000000000E+00
 282742.705570291728 0.000000000000000000E+00 0.000000000000000000E+00
 282742.705570291728 0.000000000000000000E+00 0.000000000000000000E+00
 282742.705570291728 0.000000000000000000E+00 0.000000000000000000E+00
 282742.705570291728 0.000000000000000000E+00 0.000000000000000000E+00
 282742.705570291728 0.000000000000000000E+00 0.000000000000000000E+00
 282742.705570291728 0.000000000000000000E+00 0.000000000000000000E+00
 281082.747210720612 8833.38119404070494 0.000000000000000000E+00
 281082.745738609170 8829.02240741482456 277.463207078145274
 281082.741345490969 8815.95035008971354 554.652582800628011
 281082.734100648551 8794.17792545492193 831.294566298026666
 281082.724118337734 8763.72662493766074 1107.11613740005805
 281082.711555985967 8724.62650668632523 1381.84508630222035
 281082.696611709835 8676.91616576046545 1655.21028241412910
 281082.679521190294 8620.64269586018054 1926.94194211875538
 281082.660553955589 8555.86164263699175 2196.77189517346505
 281082.640009131166 8482.63694863744422 2464.43384948582252
 281082.618210721703 8401.04088993944606 2729.66365399954157
 281082.595502501761 8311.15400455009512 2992.19955942875913
 281082.572242593742 8213.06501264220424 3251.78247658189593
 281082.548797820637 8106.87072871495093 3508.15623201976678
 281082.525537920359 7992.67596577202585 3761.06782079623463
 281082.502829715319 7870.59343161847664 4010.26765603361127
 281082.481031327217 7740.74361738478001 4255.50981508910900
 281082.460486528988 7603.25467839396879 4496.55228207287018
 281082.441519323911 7458.26230749458045 4733.15718648259735
 281082.424428835337 7305.90960098886080 4965.09103772427989
 281082.409484589763 7146.34691729217957 5192.12495529323041
 281082.396922266169 6979.73172846582565 5414.03489439432815
 281082.386939979275 6806.22846477139683 5630.60186678521131
 281082.379695155018 6626.00835240091237 5841.61215663098665
 281082.375302048342 6439.24924454239408 6046.85753116397791
 281082.373829940800 6246.13544594626546 6246.13544594691120
 281082.375302048400 6046.85753116331307 6439.24924454302163
 281082.379695155076 5841.61215663030180 6626.00835240151901
 281082.386939979275 5630.60186678450646 6806.22846477198073
 281082.396922266169 5414.03489439360601 6979.73172846638499
 281082.409484589822 5192.12495529249099 7146.34691729271799
 281082.424428835337 4965.09103772352319 7305.90960098937467
 281082.441519323911 4733.15718648182519 7458.26230749506885
 281082.460486529046 4496.55228207208529 7603.25467839443536
 281082.481031327217 4255.50981508830864 7740.74361738522111
 281082.502829715377 4010.26765603279819 7870.59343161889319
 281082.525537920417 3761.06782079540926 7992.67596577241693
 281082.548797820637 3508.15623201892777 8106.87072871531382
 281082.572242593858 3251.78247658104692 8213.06501264254439
 281082.595502501761 2992.19955942789875 8311.15400455040435
 281082.618210721703 2729.66365399867254 8401.04088993972800
 281082.640009131166 2464.43384948494622 8482.63694863769888
 281082.660553955589 2196.77189517258057 8555.86164263721912
 281082.679521190235 1926.94194211786385 8620.64269586037881
 281082.696611709835 1655.21028241323029 8676.91616576063825
 281082.711555985967 1381.84508630131722 8724.62650668646711
 281082.724118337675 1107.11613739915038 8763.72662493777534
 281082.734100648551 831.294566297116489 8794.17792545500743
 281082.741345490969 554.652582799715788 8815.95035008976993
 281082.745738609170 277.463207077232028 8829.02240741485548
 281082.747210720612 -0.913473672420217316E-09 8833.38119404070494
 281082.745738609170 -277.463207079058009 8829.02240741479727
 281082.741345491027 -554.652582801539324 8815.95035008965715
 281082.734100648551 -831.294566298937184 8794.17792545483280
 281082.724118337617 -1107.11613740096482 8763.72662493754251
 281082.711555985967 -1381.84508630312325 8724.62650668618153
 281082.696611709893 -1655.21028241502722 8676.91616576029628
 281082.679521190235 -1926.94194211964668 8620.64269585998045
 281082.660553955589 -2196.77189517434999 8555.86164263676437
 281082.640009131166 -2464.43384948669973 8482.63694863718956
 281082.618210721703 -2729.66365400041195 8401.04088993916230
 281082.595502501761 -2992.19955942961951 8311.15400454978590
 281082.572242593742 -3251.78247658274586 8213.06501264186772
 281082.548797820637 -3508.15623202060669 8106.87072871458804
 281082.525537920359 -3761.06782079706136 7992.67596577163749
 281082.502829715319 -4010.26765603442527 7870.59343161806191
 281082.481031327159 -4255.50981508990844 7740.74361738433981
 281082.460486528988 -4496.55228207365599 7603.25467839350404
 281082.441519323911 -4733.15718648336770 7458.26230749408933
 281082.424428835337 -4965.09103772503477 7305.90960098834785
 281082.409484589705 -5192.12495529396710 7146.34691729164206
 281082.396922266169 -5414.03489439504938 6979.73172846526541
 281082.386939979275 -5630.60186678591344 6806.22846477081566
 281082.379695155018 -5841.61215663167513 6626.00835240030756
 281082.375302048342 -6046.85753116464457 6439.24924454176744
 281082.373829940800 -6246.13544594755786 6246.13544594561881
 281082.375302048342 -6439.24924454364645 6046.85753116264368
 281082.379695155076 -6626.00835240212382 5841.61215662961695
 281082.386939979275 -6806.22846477256280 5630.60186678380251
 281082.396922266169 -6979.73172846694524 5414.03489439288387
 281082.409484589763 -7146.34691729325368 5192.12495529175158
 281082.424428835337 -7305.90960098988762 4965.09103772276922
 281082.441519323911 -7458.26230749555907 4733.15718648105485
 281082.460486529046 -7603.25467839490011 4496.55228207129767
 281082.481031327217 -7740.74361738566131 4255.50981508750829
 281082.502829715377 -7870.59343161930701 4010.26765603198419
 281082.525537920359 -7992.67596577280347 3761.06782079458162
 281082.548797820637 -8106.87072871567489 3508.15623201809103
 281082.572242593800 -8213.06501264287908 3251.78247658019473
 281082.595502501761 -8311.15400455071540 2992.19955942703791
 281082.618210721703 -8401.04088994000995 2729.66365399780216
 281082.640009131108 -8482.63694863795354 2464.43384948406629
 281082.660553955589 -8555.86164263744649 2196.77189517169381
 281082.679521190235 -8620.64269586057890 1926.94194211697027
 281082.696611709835 -8676.91616576080742 1655.21028241233307
 281082.711555985908 -8724.62650668660899 1381.84508630041455
 281082.724118337675 -8763.72662493788812 1107.11613739824406
 281082.734100648551 -8794.17792545509292 831.294566296207108
 281082.741345490969 -8815.95035008982813 554.652582798804133
 281082.745738609170 -8829.02240741488458 277.463207076318952
 281082.747210720612 -8833.38119404070494 -0.182694734484043463E-08
 281082.745738609170 -8829.02240741476817 -277.463207079971028
 281082.741345490969 -8815.95035008959894 -554.652582802450866
 281082.734100648551 -8794.17792545474913 -831.294566299844860
 281082.724118337617 -8763.72662493742973 -1107.11613740186908
 281082.711555985908 -8724.62650668603601 -1381.84508630402729
 281082.696611709835 -8676.91616576012348 -1655.21028241592580
 281082.679521190235 -8620.64269585978036 -1926.94194212054003
 281082.660553955589 -8555.86164263653700 -2196.77189517523675
 281082.640009131108 -8482.63694863693308 -2464.43384948757830
 281082.618210721703 -8401.04088993888035 -2729.66365400128052
 281082.595502501761 -8311.15400454947485 -2992.19955943047898
 281082.572242593742 -8213.06501264153121 -3251.78247658359487
 281082.548797820637 -8106.87072871422515 -3508.15623202144479
 281082.525537920301 -7992.67596577124641 -3761.06782079788718
 281082.502829715377 -7870.59343161764809 -4010.26765603523927
 281082.481031327159 -7740.74361738389962 -4255.50981509070971
 281082.460486529046 -7603.25467839303928 -4496.55228207444361
 281082.441519323911 -7458.26230749360093 -4733.15718648413986
 281082.424428835278 -7305.90960098783307 -4965.09103772578874
 281082.409484589705 -7146.34691729110273 -5192.12495529470834
 281082.396922266169 -6979.73172846470334 -5414.03489439577334
 281082.386939979275 -6806.22846477023086 -5630.60186678662012
 281082.379695155076 -6626.00835239970456 -5841.61215663235998
 281082.375302048400 -6439.24924454114444 -6046.85753116531123
 281082.373829940741 -6246.13544594496943 -6246.13544594820269
 281082.375302048342 -6046.85753116197793 -6439.24924454427219
 281082.379695155018 -5841.61215662893028 -6626.00835240272590
 281082.386939979217 -5630.60186678309674 -6806.22846477314397
 281082.396922266111 -5414.03489439215627 -6979.73172846750731
 281082.409484589763 -5192.12495529101216 -7146.34691729379119
 281082.424428835278 -4965.09103772200888 -7305.90960099040149
 281082.441519323911 -4733.15718648028269 -7458.26230749604747
 281082.460486529046 -4496.55228207050823 -7603.25467839536759
 281082.481031327217 -4255.50981508670793 -7740.74361738610150
 281082.502829715377 -4010.26765603116701 -7870.59343161972356
 281082.525537920359 -3761.06782079375489 -7992.67596577319273
 281082.548797820637 -3508.15623201724929 -8106.87072871603959
 281082.572242593800 -3251.78247657934890 -8213.06501264321378
 281082.595502501761 -2992.19955942617798 -8311.15400455102281
 281082.618210721703 -2729.66365399693723 -8401.04088994029189
 281082.640009131108 -2464.43384948318862 -8482.63694863820820
 281082.660553955589 -2196.77189517081297 -8555.86164263767205
 281082.679521190235 -1926.94194211607874 -8620.64269586077717
 281082.696611709835 -1655.21028241143949 -8676.91616576097840
 281082.711555985908 -1381.84508629951233 -8724.62650668675269
 281082.724118337734 -1107.11613739733411 -8763.72662493800635
 281082.734100648551 -831.294566295297614 -8794.17792545517841
 281082.741345490969 -554.652582797888613 -8815.95035008988452
 281082.745738609170 -277.463207075405933 -8829.02240741491369
 281082.747210720612 0.274434382653541807E-08 -8833.38119404070494
 281082.745738609112 277.463207080884047 -8829.02240741473724
 281082.741345490969 554.652582803366386 -8815.95035008954073
 281082.734100648551 831.294566300754241 -8794.17792545466364
 281082.724118337675 1107.11613740277949 -8763.72662493731696
 281082.711555985967 1381.84508630492564 -8724.62650668589595
 281082.696611709893 1655.21028241682370 -8676.91616575995431
 281082.679521190235 1926.94194212142793 -8620.64269585958209
 281082.660553955589 2196.77189517612169 -8555.86164263630963
 281082.640009131108 2464.43384948845187 -8482.63694863667843
 281082.618210721703 2729.66365400214954 -8401.04088993859841
 281082.595502501703 2992.19955943134119 -8311.15400454916380
 281082.572242593800 3251.78247658444479 -8213.06501264119834
 281082.548797820637 3508.15623202228653 -8106.87072871386044
 281082.525537920301 3761.06782079871391 -7992.67596577085806
 281082.502829715435 4010.26765603605782 -7870.59343161723336
 281082.481031327217 4255.50981509151097 -7740.74361738346033
 281082.460486529046 4496.55228207523214 -7603.25467839257271
 281082.441519323911 4733.15718648491020 -7458.26230749311071
 281082.424428835278 4965.09103772654817 -7305.90960098731648
 281082.409484589763 5192.12495529544594 -7146.34691729056976
 281082.396922266111 5414.03489439649456 -6979.73172846414218
 281082.386939979217 5630.60186678732043 -6806.22846476964969
 281082.379695155018 5841.61215663304483 -6626.00835239909975
 281082.375302048342 6046.85753116597425 -6439.24924454052052
 281082.373829940800 6246.13544594885025 -6246.13544594432551
 281082.375302048400 6439.24924454490156 -6046.85753116131127
 281082.379695155076 6626.00835240333163 -5841.61215662824634
 281082.386939979217 6806.22846477372786 -5630.60186678239006
 281082.396922266169 6979.73172846806574 -5414.03489439144050
 281082.409484589763 7146.34691729433052 -5192.12495529026910
 281082.424428835278 7305.90960099091353 -4965.09103772125673
 281082.441519323911 7458.26230749653951 -4733.15718647950871
 281082.460486529046 7603.25467839582961 -4496.55228206972606
 281082.481031327217 7740.74361738654352 -4255.50981508590394
 281082.502829715377 7870.59343162013647 -4010.26765603035619
 281082.525537920359 7992.67596577358290 -3761.06782079292543
 281082.548797820637 8106.87072871640066 -3508.15623201641483
 281082.572242593800 8213.06501264355211 -3251.78247657849624
 281082.595502501761 8311.15400455133204 -2992.19955942532260
 281082.618210721703 8401.04088994057565 -2729.66365399606457
 281082.640009131108 8482.63694863846104 -2464.43384948231551
 281082.660553955589 8555.86164263789942 -2196.77189516992439
 281082.679521190235 8620.64269586097726 -1926.94194211518356
 281082.696611709835 8676.91616576115121 -1655.21028241053841
 281082.711555985908 8724.62650668689639 -1381.84508629860625
 281082.724118337675 8763.72662493811731 -1107.11613739643144
 281082.734100648551 8794.17792545526390 -831.294566294384254
 281082.741345490969 8815.95035008994273 -554.652582796980823
 281082.745738609170 8829.02240741494097 -277.463207074488992
 281082.747210720612 8833.38119404070494 0.365389468968086926E-08
 276231.539493624761 17379.0153922059617 0.000000000000000000E+00
 276231.516757059610 17370.4384674493012 545.888020567758531
 276231.448905955534 17344.7161871410717 1091.23704752304525
 276231.337010430405 17301.8740241057822 1635.50862683598530
 276231.182835247833 17241.9544028735618 2178.16538291130064
 276230.988811979245 17165.0166545019092 2718.67155598481168
 276230.758000648289 17071.1369535002486 3256.49353735077511
 276230.494041461905 16960.4082370278011 3791.10040172291974
 276230.201097391080 16832.9401065793973 4321.96443605355853
 276229.883788507897 16688.8587124139704 4848.56166416102587
 276229.547119112860 16528.3066210167817 5370.37236654548451
 276229.196398805012 16351.4426659182773 5886.88159480613831
 276228.837158738519 16158.4417822188552 6397.57968010827881
 276228.475064387952 15949.4948251905043 6901.96273518579437
 276228.115826197609 15724.8083733420444 7399.53314940264863
 276227.765109524247 15484.6045163453582 7889.80007643493718
 276227.428445293684 15229.1206282252751 8372.27991417238445
 276227.111142780457 14958.6091262158898 8846.49677647387034
 276226.818205884891 14673.3372156814821 9311.98295644495374
 276226.554254227900 14373.5866214915113 9768.27938093589910
 276226.323450307595 14059.6533062266099 10214.9360559857014
 276226.129433865426 13731.8471755768933 10651.5125029604515
 276225.975264495821 13390.4917712761217 11077.5781851530483
 276225.863373405184 13035.9239518958966 11492.7129246251443
 276225.795525078371 12668.4935618036980 11896.5073090813348
 276225.772789458802 12288.5630885687333 12288.5630885700029
 276225.795525078429 11896.5073090800270 12668.4935618049294
 276225.863373405184 11492.7129246237964 13035.9239518970862
 276225.975264495879 11077.5781851516640 13390.4917712772731
 276226.129433865426 10651.5125029590308 13731.8471755779938
 276226.323450307595 10214.9360559842462 14059.6533062276703
 276226.554254227900 9768.27938093441117 14373.5866214925227
 276226.818205884891 9311.98295644343489 14673.3372156824444
 276227.111142780457 8846.49677647232420 14958.6091262168047
 276227.428445293684 8372.27991417080921 15229.1206282261410
 276227.765109524305 7889.80007643333738 15484.6045163461768
 276228.115826197667 7399.53314940102518 15724.8083733428120
 276228.475064387952 6901.96273518414364 15949.4948251912192
 276228.837158738461 6397.57968010660443 16158.4417822195137
 276229.196398804954 5886.88159480444392 16351.4426659188848
 276229.547119112918 5370.37236654377648 16528.3066210173420
 276229.883788507897 4848.56166415930056 16688.8587124144724
 276230.201097391080 4321.96443605181776 16832.9401065798447
 276230.494041461905 3791.10040172116624 16960.4082370281940
 276230.758000648231 3256.49353734900569 17071.1369535005833
 276230.988811979303 2718.67155598303498 17165.0166545021966
 276231.182835247833 2178.16538290951576 17241.9544028737873
 276231.337010430405 1635.50862683419427 17301.8740241059531
 276231.448905955534 1091.23704752125082 17344.7161871411845
 276231.516757059610 545.888020565961710 17370.4384674493595
 276231.539493624761 -0.179719098096613961E-08 17379.0153922059617