 VARIABLES = "x_1", "x_2", "x_3"
 ZONE F = POINT , I =         201  , J =         101
   6577.2787386236459        0.0000000000000000        0.0000000000000000     
   6577.2787386236469        0.0000000000000000        0.0000000000000000     
   6577.2787386236469        0.0000000000000000        0.0000000000000000     
   6577.2787386236469        0.0000000000000000        0.0000000000000000     
   6577.2787386236459        0.0000000000000000        0.0000000000000000     
   6577.2787386236459        0.0000000000000000        0.0000000000000000     
   6577.2787386236459        0.0000000000000000        0.0000000000000000     
   6577.2787386236459        0.0000000000000000        0.0000000000000000     
   6577.2787386236459        0.0000000000000000        0.0000000000000000     
   6577.2787386236469        0.0000000000000000        0.0000000000000000     
   6577.2787386236469        0.0000000000000000        0.0000000000000000     
   6577.2787386236459        0.0000000000000000        0.0000000000000000     
   6577.2787386236469        0.0000000000000000        0.0000000000000000     
   6577.2787386236469        0.0000000000000000        0.0000000000000000     
   6577.2787386236469        0.0000000000000000        0.0000000000000000     
   6577.2787386236469        0.0000000000000000        0.0000000000000000     
   6577.2787386236469        0.0000000000000000        0.0000000000000000     
   6577.2787386236459        0.0000000000000000        0.0000000000000000     
   6577.2787386236469        0.0000000000000000        0.0000000000000000     
   6577.2787386236469        0.0000000000000000        0.0000000000000000     
   6577.2787386236469        0.0000000000000000        0.0000000000000000     
   6577.2787386236469        0.0000000000000000        0.0000000000000000     
   6577.2787386236459        0.0000000000000000        0.0000000000000000     
   6577.2787386236459        0.0000000000000000        0.0000000000000000     
   6577.2787386236459        0.0000000000000000        0.0000000000000000     
   6577.2787386236469        0.0000000000000000        0.0000000000000000     
   6577.2787386236459        0.0000000000000000        0.0000000000000000     
   6577.2787386236459        0.0000000000000000        0.0000000000000000     
   6577.2787386236459        0.0000000000000000        0.0000000000000000     
   6577.2787386236469        0.0000000000000000        0.0000000000000000     
   6577.2787386236459        0.0000000000000000        0.0000000000000000     
   6577.2787386236469        0.0000000000000000        0.0000000000000000     
   6577.2787386236459        0.0000000000000000        0.0000000000000000     
   6577.2787386236459        0.0000000000000000        0.0000000000000000     
   6577.2787386236469        0.0000000000000000        0.0000000000000000     
   6577.2787386236469        0.0000000000000000        0.0000000000000000     
   6577.2787386236469        0.0000000000000000        0.0000000000000000     
   6577.2787386236459        0.0000000000000000        0.0000000000000000     
   6577.2787386236469        0.0000000000000000        0.0000000000000000     
   6577.2787386236469        0.0000000000000000        0.0000000000000000     
   6577.2787386236469        0.0000000000000000        0.0000000000000000     
   6577.2787386236459        0.0000000000000000        0.0000000000000000     
   6577.2787386236469        0.0000000000000000        0.0000000000000000     
   6577.2787386236469        0.0000000000000000        0.0000000000000000     
   6577.2787386236469        0.0000000000000000        0.0000000000000000     
   6577.2787386236469        0.0000000000000000        0.0000000000000000     
   6577.2787386236459        0.0000000000000000        0.0000000000000000     
   6577.2787386236478        0.0000000000000000        0.0000000000000000     
   6577.2787386236469        0.0000000000000000        0.0000000000000000     
   6577.2787386236469        0.0000000000000000        0.0000000000000000     
   6577.2787386236459       -0.0000000000000000        0.0000000000000000     
   6577.2787386236459       -0.0000000000000000        0.0000000000000000     
   6577.2787386236469       -0.0000000000000000        0.0000000000000000     
   6577.2787386236478       -0.0000000000000000        0.0000000000000000     
   6577.2787386236459       -0.0000000000000000        0.0000000000000000     
   6577.2787386236459       -0.0000000000000000        0.0000000000000000     
   6577.2787386236469       -0.0000000000000000        0.0000000000000000     
   6577.2787386236469       -0.0000000000000000        0.0000000000000000     
   6577.2787386236469       -0.0000000000000000        0.0000000000000000     
   6577.2787386236469       -0.0000000000000000        0.0000000000000000     
   6577.2787386236459       -0.0000000000000000        0.0000000000000000     
   6577.2787386236469       -0.0000000000000000        0.0000000000000000     
   6577.2787386236469       -0.0000000000000000        0.0000000000000000     
   6577.2787386236459       -0.0000000000000000        0.0000000000000000     
   6577.2787386236469       -0.0000000000000000        0.0000000000000000     
   6577.2787386236469       -0.0000000000000000        0.0000000000000000     
   6577.2787386236469       -0.0000000000000000        0.0000000000000000     
   6577.2787386236459       -0.0000000000000000        0.0000000000000000     
   6577.2787386236469       -0.0000000000000000        0.0000000000000000     
   6577.2787386236459       -0.0000000000000000        0.0000000000000000     
   6577.2787386236459       -0.0000000000000000        0.0000000000000000     
   6577.2787386236459       -0.0000000000000000        0.0000000000000000     
   6577.2787386236469       -0.0000000000000000        0.0000000000000000     
   6577.2787386236469       -0.0000000000000000        0.0000000000000000     
   6577.2787386236459       -0.0000000000000000        0.0000000000000000     
   6577.2787386236469       -0.0000000000000000        0.0000000000000000     
   6577.2787386236459       -0.0000000000000000        0.0000000000000000     
   6577.2787386236478       -0.0000000000000000        0.0000000000000000     
   6577.2787386236469       -0.0000000000000000        0.0000000000000000     
   6577.2787386236459       -0.0000000000000000        0.0000000000000000     
   6577.2787386236459       -0.0000000000000000        0.0000000000000000     
   6577.2787386236459       -0.0000000000000000        0.0000000000000000     
   6577.2787386236469       -0.0000000000000000        0.0000000000000000     
   6577.2787386236469       -0.0000000000000000        0.0000000000000000     
   6577.2787386236459       -0.0000000000000000        0.0000000000000000     
   6577.2787386236478       -0.0000000000000000        0.0000000000000000     
   6577.2787386236469       -0.0000000000000000        0.0000000000000000     
   6577.2787386236469       -0.0000000000000000        0.0000000000000000     
   6577.2787386236459       -0.0000000000000000        0.0000000000000000     
   6577.2787386236459       -0.0000000000000000        0.0000000000000000     
   6577.2787386236459       -0.0000000000000000        0.0000000000000000     
   6577.2787386236459       -0.0000000000000000        0.0000000000000000     
   6577.2787386236459       -0.0000000000000000        0.0000000000000000     
   6577.2787386236459       -0.0000000000000000        0.0000000000000000     
   6577.2787386236459       -0.0000000000000000        0.0000000000000000     
   6577.2787386236469       -0.0000000000000000        0.0000000000000000     
   6577.2787386236459       -0.0000000000000000        0.0000000000000000     
   6577.2787386236459       -0.0000000000000000        0.0000000000000000     
   6577.2787386236459       -0.0000000000000000        0.0000000000000000     
   6577.2787386236469       -0.0000000000000000        0.0000000000000000     
   6577.2787386236469       -0.0000000000000000       -0.0000000000000000     
   6577.2787386236469       -0.0000000000000000       -0.0000000000000000     
   6577.2787386236478       -0.0000000000000000       -0.0000000000000000     
   6577.2787386236469       -0.0000000000000000       -0.0000000000000000     
   6577.2787386236469       -0.0000000000000000       -0.0000000000000000     
   6577.2787386236459       -0.0000000000000000       -0.0000000000000000     
   6577.2787386236469       -0.0000000000000000       -0.0000000000000000     
   6577.2787386236478       -0.0000000000000000       -0.0000000000000000     
   6577.2787386236459       -0.0000000000000000       -0.0000000000000000     
   6577.2787386236469       -0.0000000000000000       -0.0000000000000000     
   6577.2787386236469       -0.0000000000000000       -0.0000000000000000     
   6577.2787386236469       -0.0000000000000000       -0.0000000000000000     
   6577.2787386236469       -0.0000000000000000       -0.0000000000000000     
   6577.2787386236469       -0.0000000000000000       -0.0000000000000000     
   6577.2787386236459       -0.0000000000000000       -0.0000000000000000     
   6577.2787386236459       -0.0000000000000000       -0.0000000000000000     
   6577.2787386236478       -0.0000000000000000       -0.0000000000000000     
   6577.2787386236469       -0.0000000000000000       -0.0000000000000000     
   6577.2787386236469       -0.0000000000000000       -0.0000000000000000     
   6577.2787386236469       -0.0000000000000000       -0.0000000000000000     
   6577.2787386236459       -0.0000000000000000       -0.0000000000000000     
   6577.2787386236469       -0.0000000000000000       -0.0000000000000000     
   6577.2787386236469       -0.0000000000000000       -0.0000000000000000     
   6577.2787386236469       -0.0000000000000000       -0.0000000000000000     
   6577.2787386236469       -0.0000000000000000       -0.0000000000000000     
   6577.2787386236469       -0.0000000000000000       -0.0000000000000000     
   6577.2787386236459       -0.0000000000000000       -0.0000000000000000     
   6577.2787386236459       -0.0000000000000000       -0.0000000000000000     
   6577.2787386236469       -0.0000000000000000       -0.0000000000000000     
   6577.2787386236469       -0.0000000000000000       -0.0000000000000000     
   6577.2787386236469       -0.0000000000000000       -0.0000000000000000     
   6577.2787386236459       -0.0000000000000000       -0.0000000000000000     
   6577.2787386236459       -0.0000000000000000       -0.0000000000000000     
   6577.2787386236469       -0.0000000000000000       -0.0000000000000000     
   6577.2787386236469       -0.0000000000000000       -0.0000000000000000     
   6577.2787386236469       -0.0000000000000000       -0.0000000000000000     
   6577.2787386236459       -0.0000000000000000       -0.0000000000000000     
   6577.2787386236459       -0.0000000000000000       -0.0000000000000000     
   6577.2787386236469       -0.0000000000000000       -0.0000000000000000     
   6577.2787386236459       -0.0000000000000000       -0.0000000000000000     
   6577.2787386236459       -0.0000000000000000       -0.0000000000000000     
   6577.2787386236469       -0.0000000000000000       -0.0000000000000000     
   6577.2787386236459       -0.0000000000000000       -0.0000000000000000     
   6577.2787386236469       -0.0000000000000000       -0.0000000000000000     
   6577.2787386236459       -0.0000000000000000       -0.0000000000000000     
   6577.2787386236469       -0.0000000000000000       -0.0000000000000000     
   6577.2787386236459       -0.0000000000000000       -0.0000000000000000     
   6577.2787386236459       -0.0000000000000000       -0.0000000000000000     
   6577.2787386236459       -0.0000000000000000       -0.0000000000000000     
   6577.2787386236469       -0.0000000000000000       -0.0000000000000000     
   6577.2787386236459        0.0000000000000000       -0.0000000000000000     
   6577.2787386236469        0.0000000000000000       -0.0000000000000000     
   6577.2787386236469        0.0000000000000000       -0.0000000000000000     
   6577.2787386236469        0.0000000000000000       -0.0000000000000000     
   6577.2787386236459        0.0000000000000000       -0.0000000000000000     
   6577.2787386236469        0.0000000000000000       -0.0000000000000000     
   6577.2787386236469        0.0000000000000000       -0.0000000000000000     
   6577.2787386236459        0.0000000000000000       -0.0000000000000000     
   6577.2787386236469        0.0000000000000000       -0.0000000000000000     
   6577.2787386236469        0.0000000000000000       -0.0000000000000000     
   6577.2787386236459        0.0000000000000000       -0.0000000000000000     
   6577.2787386236450        0.0000000000000000       -0.0000000000000000     
   6577.2787386236459        0.0000000000000000       -0.0000000000000000     
   6577.2787386236459        0.0000000000000000       -0.0000000000000000     
   6577.2787386236469        0.0000000000000000       -0.0000000000000000     
   6577.2787386236459        0.0000000000000000       -0.0000000000000000     
   6577.2787386236469        0.0000000000000000       -0.0000000000000000     
   6577.2787386236469        0.0000000000000000       -0.0000000000000000     
   6577.2787386236469        0.0000000000000000       -0.0000000000000000     
   6577.2787386236469        0.0000000000000000       -0.0000000000000000     
   6577.2787386236459        0.0000000000000000       -0.0000000000000000     
   6577.2787386236469        0.0000000000000000       -0.0000000000000000     
   6577.2787386236469        0.0000000000000000       -0.0000000000000000     
   6577.2787386236459        0.0000000000000000       -0.0000000000000000     
   6577.2787386236469        0.0000000000000000       -0.0000000000000000     
   6577.2787386236478        0.0000000000000000       -0.0000000000000000     
   6577.2787386236459        0.0000000000000000       -0.0000000000000000     
   6577.2787386236459        0.0000000000000000       -0.0000000000000000     
   6577.2787386236469        0.0000000000000000       -0.0000000000000000     
   6577.2787386236469        0.0000000000000000       -0.0000000000000000     
   6577.2787386236469        0.0000000000000000       -0.0000000000000000     
   6577.2787386236469        0.0000000000000000       -0.0000000000000000     
   6577.2787386236469        0.0000000000000000       -0.0000000000000000     
   6577.2787386236459        0.0000000000000000       -0.0000000000000000     
   6577.2787386236469        0.0000000000000000       -0.0000000000000000     
   6577.2787386236469        0.0000000000000000       -0.0000000000000000     
   6577.2787386236459        0.0000000000000000       -0.0000000000000000     
   6577.2787386236469        0.0000000000000000       -0.0000000000000000     
   6577.2787386236469        0.0000000000000000       -0.0000000000000000     
   6577.2787386236459        0.0000000000000000       -0.0000000000000000     
   6577.2787386236459        0.0000000000000000       -0.0000000000000000     
   6577.2787386236459        0.0000000000000000       -0.0000000000000000     
   6577.2787386236459        0.0000000000000000       -0.0000000000000000     
   6577.2787386236459        0.0000000000000000       -0.0000000000000000     
   6577.2787386236469        0.0000000000000000       -0.0000000000000000     
   6577.2787386236469        0.0000000000000000       -0.0000000000000000     
   6577.2787386236469        0.0000000000000000       -0.0000000000000000     
   6577.2787386236459        0.0000000000000000       -0.0000000000000000     
   6577.2787386236469        0.0000000000000000       -0.0000000000000000     
   6577.2787386236469        0.0000000000000000       -0.0000000000000000     
   6577.2787386236459        0.0000000000000000        0.0000000000000000     
   6574.7114390593433        206.61863084215659        0.0000000000000000     
   6574.2836309732984        206.50323924379833        6.4896257352898257     
   6573.8563241510928        206.18409613098430        12.972003801076269     
   6573.4299561087419        205.66155655023647        19.440740897650407     
   6573.0049610762353        204.93617586749824        25.889459718465091     
   6572.5817695063934        204.00870905992082        32.311805205788879     
   6572.1608075981239        202.88010981409457        38.701450774264323     
   6571.7424968348187        201.55152943225764        45.052104496536856     
   6571.3272535385613        200.02431554817747        51.357515245199274     
   6570.9154884408081        198.30001065455821        57.611478785378338     
   6570.5076062700846        196.38035044398057        63.807843812374344     
   6570.1040053571396        194.26726196552642        69.940517928851222     
   6569.7050772580178        191.96286159939041        76.003473556164721     
   6569.3112063953140        189.46945285191680        81.990753774507198     
   6568.9227697179094        186.78952397364102        87.896478086641622     
   6568.5401363793226        183.92574540304690        93.714848100092539     
   6568.1636674347919        180.88096703888129        99.440153122759909     
   6567.7937155571117        177.65821534399635        105.06677566702010     
   6567.4306247711329        174.26069028381028        110.58919685747914     
   6567.0747302068576        170.69176210260287        116.00200173764652     
   6566.7263578708616        166.95496794097519        121.29988447090066     
   6566.3858244358471        163.05400829792242        126.47765343122335     
   6566.0534370479227        158.99274334107778        131.53023617928798     
   6565.7294931512824        154.77518906879843        136.45268431959363     
   6565.4142803297873        150.40551332786944        141.24017823444936     
   6565.1080761649591        145.88803169070871        145.88803169072381     
   6564.8111481098267        141.22720319605716        150.39169631538880     
   6564.5237533780364        136.42762595723994        154.74676593600353     
   6564.2461388475449        131.49403264218168        158.94898078239939     
   6563.9785409782817        126.43128582945461        162.99423154595047     
   6563.7211857429938        121.24437324473205        166.87856329292987     
   6563.4742885706091        115.93840288211057        170.59817922858241     
   6563.2380543013296        110.51859801485210        174.14944430866430     
   6563.0126771526784        104.99029210018324        177.52888869533209     
   6562.7983406957519        99.358923582873146        180.73321105439186     
   6562.5952178408952        93.630030602390832        183.75928169105381     
   6562.4034708319714        87.809245608519575        186.60414552146921     
   6562.2232512485616        81.902289890384154        189.26502487746933     
   6562.0547000152010        75.914968023913005        191.73932214205951     
   6561.8979474170337        69.853162242830251        194.02462221336916     
   6561.7531131211053        63.722826738334767        196.11869479489920     
   6561.6203062025979        57.529981892685150        198.01949651005634     
   6561.4996251753855        51.280708451967385        199.72517283911324     
   6561.3911580262456        44.981141643375118        201.23405987688270     
   6561.2949822521805        38.637465242382710        202.54468590955000     
   6561.2111649002472        32.255905595235681        203.65577280925734     
   6561.1397626094604        25.842725602225187        204.56623724519815     
   6561.0808216542573        19.404218667249758        205.27519171012980     
   6561.0343779891546        12.946702619199385        205.78194536137923     
   6561.0004572942362        6.4765136107249566        206.08600467557304     
   6560.9790750211414       -2.1322125636685738E-011   206.18707391648789     
   6560.9702364393506       -6.4764837790705263        206.08505541557975     
   6560.9739366825197       -12.946583352129807        205.78004966491420     
   6560.9901607947668       -19.403950540258016        205.27235522238564     
   6561.0188837767546       -25.842249490095309        204.56246842927604     
   6561.0600706316091       -32.255162793020361        203.65108294037233     
   6561.1136764105877       -38.636397587613850        202.53908906702259     
   6561.1796462586444       -44.979691639820160        201.22757293368090     
   6561.2579154599180       -51.278819395214207        199.71781544864976     
   6561.3484094833375       -57.527597997802935        198.01129108989846     
   6561.4510440285239       -63.719893269816325        196.10966650699498     
   6561.5657250721933       -69.849625646973792        194.01479894035276     
   6561.6923489153651       -75.910776063748912        191.72873445915539     
   6561.8308022316241       -81.897391783193243        189.25370601948154     
   6561.9809621168142       -87.803592165927597        186.59213134431036     
   6562.1426961404632       -93.623574372956611        183.74661062724635     
   6562.3158623993659       -99.351618997017070        180.71992406195693     
   6562.5003095736793       -104.98209561722837        177.51502919946941     
   6562.6958769859593       -110.50946827187492        174.13505813562631     
   6562.9023946635598       -115.92830084421804        170.58331453114891     
   6563.1196834048151       -121.23326235630346        166.86327046690383     
   6563.3475548494580       -126.41913216580556        162.97856313711682     
   6563.5858115536821       -131.48080506102744        158.93299138341888     
   6563.8342470703374       -136.41329624925726        154.73051207275270     
   6564.0926460346045       -141.21174623376524        150.37523632230557     
   6564.3607842556594       -145.87142557481801        145.87142557477267     
   6564.6384288146919       -150.38773953017449        141.22348752738947     
   6564.9253381696753       -154.75623257062665        136.43597191830233     
   6565.2212622672987       -158.97259276624612        131.51356617397911     
   6565.5259426624007       -163.03265603910003        126.46109092148615     
   6565.8391126452671       -166.93241027830470        121.28349536958537     
   6566.1604973771291       -170.66799931339580        115.98585256272598     
   6566.4898140341147       -174.23572674210334        110.57335451212631     
   6566.8267719600080       -177.63205960873776        105.05130720825893     
   6567.1710728280068       -180.85363192951004        99.425125519166130     
   6567.5224108117327       -183.89724806122950        93.700327979145740     
   6567.8804727657016       -186.75988590995115        87.882531472457700     
   6568.2449384154179       -189.43869997626726        81.977445816806934     
   6568.6154805572378       -191.93102423407370        75.990868251463525     
   6568.9917652681406       -194.23437483977213        69.928677834982565     
   6569.3734521254737       -196.34645266900856        63.796829757582515     
   6569.7601944367816       -198.26514567818893        57.601349573339228     
   6570.1516394796990       -199.98853108815436        51.348327357441889     
   6570.5474287519783       -201.51487738754852        45.043911793848231     
   6570.9471982316127       -202.84264615355664        38.694304198760740     
   6571.3505786470214       -203.97049368785073        32.305752485428485     
   6571.7571957572354       -204.89727246573068        25.884545075857279     
   6572.1666706420065       -205.62203239661127        19.437004765086098     
   6572.5786200017292       -206.14402189416623        12.969482543758600     
   6572.9926564670350       -206.46268875460746        6.4883513847855756     
   6573.4083889179165       -206.57768084174430       -4.2725037811311775E-011
   6573.8254228122050       -206.48884657764128       -6.4891734275768442     
   6574.2433605232245       -206.19623523786544       -12.972767528989255     
   6574.6618016863522       -205.70009705049068       -19.444384047594912     
   6575.0803435543212       -205.00088309821004       -25.897634142744934     
   6575.4985813609692       -204.09924502308516       -32.326144693687247     
   6575.9161086931554       -202.99603453364975       -38.723564597252370     
   6576.3325178705791       -201.69230271427045       -45.083571053194916     
   6576.7474003331627       -200.18929913685920       -51.399875830993786     
   6577.1603470356877       -198.48847077522188       -57.666231511898637     
   6577.5709488493167       -196.59146072252361       -63.876437699995179     
   6577.9787969696408       -194.50010671254520       -70.024347196055430     
   6578.3834833308611       -192.21643944560574       -76.103872127937990     
   6578.7846010257235       -189.74268072022284       -82.108990031308721     
   6579.1817447307012       -187.08124137178294       -88.033749874462643     
   6579.5745111360957       -184.23471901970001       -93.872278021047649     
   6579.9624993804791       -181.20589562473725       -99.618784124513439     
   6580.3453114890663       -177.99773485837528       -105.26756694814145     
   6580.7225528154586       -174.61337928631301       -110.81302010454962     
   6581.0938324862755       -171.05614736839033       -116.24963770861078     
   6581.4587638480880       -167.32953027742880       -121.57201993777623     
   6581.8169649161091       -163.43718853968940       -126.77487849385528     
   6582.1680588240451       -159.38294849985002       -131.85304196036961     
   6582.5116742744749       -155.17079861361023       -136.80146104967318     
   6582.8474459891750       -150.80488557123164       -141.61521373411384     
   6583.1750151586775       -146.28951025552323       -146.28951025559891     
   6583.4940298904321       -141.62912353798077       -150.81969800802645     
   6583.8041456548817       -136.82832191698722       -155.20126628714780     
   6584.1050257286925       -131.89184300217357       -159.42985090253856     
   6584.3963416344805       -126.82456084923633       -163.50123864647830     
   6584.6777735762271       -121.63148114969306       -167.41137161466258     
   6584.9490108696600       -116.31773628024570       -171.15635137381273     
   6585.2097523668090       -110.88858021660596       -174.73244297138439     
   6585.4597068739531       -105.34938331681002       -178.13607878273581     
   6585.6985935621478       -99.705626979231567       -181.36386219126618     
   6585.9261423695252       -93.962898180663558       -184.41257109720854     
   6586.1420943945768       -88.126883900012572       -187.27916125092932     
   6586.3462022795229       -82.203365433297947       -189.96076940676980     
   6586.5382305830290       -76.198212605812614       -192.45471629365233     
   6586.7179561413750       -70.117377887437726       -194.75850939886917     
   6586.8851684172587       -63.966890417254021       -196.86984556166999     
   6587.0396698354452       -57.752849943716527       -198.78661337347847     
   6587.1812761043802       -51.481420686794031       -200.50689538177357     
   6587.3098165230285       -45.158825128583807       -202.02897009490121     
   6587.4251342720645       -38.791337739031917       -203.35131378529780     
   6587.5270866886985       -32.385278643480703       -204.47260208884668     
   6587.6155455243315       -25.947007238869009       -205.39171139831953     
   6587.6903971842858       -19.482915765484481       -206.10772004909651     
   6587.7515429489504       -12.999422841248826       -206.61990929560724     
   6587.7988991755574       -6.5029669655813560       -206.92776407717787     
   6587.8323974799905        6.4320124054859404E-011  -207.03097357222765     
   6587.8519848979777        6.5030193678404951       -206.92943154001122     
   6587.8576240250559        12.999632168148988       -206.62323644936021     
   6587.8492931347428        19.483385696078372       -206.11269139413852     
   6587.8269862744482        25.947840052422983       -205.39830379538938     
   6587.7907133385843        32.386574672056803       -204.48078489041097     
   6587.7405001184807        38.793194832454851       -203.36104900926256     
   6587.6763883287413        45.161338135161330       -202.04021263946834     
   6587.5984356096697        51.484680953045199       -200.51959327994399     
   6587.5067155055467        57.756944836212512       -198.80070808543829     
   6587.4013174184847        63.971902869507375       -196.88527230303538     
   6587.2823465377278        70.123385974584878       -194.77519750252833     
   6587.1499237443122        76.205289149621805       -192.47258960272319     
   6587.0041854909950        82.211577639807885       -189.97974669598793     
   6586.8452836575079        88.136293031855061       -187.29915667360845     
   6586.6733853812248        93.973559265871842       -184.43349465475512     
   6586.4886728633564        99.717588558054572       -181.38562022210547     
   6586.2913431509078        105.36268722778203       -178.15857446739764     
   6586.0816078946591        110.90326142282215       -174.75557685042165     
   6585.8596930835283        116.33382273651337       -171.18002187517175     
   6585.6258387557018        121.64899371092312       -167.43547558710233     
   6585.3802986870041        126.84351322015617       -163.52567189563223     
   6585.1233400570500        131.91224172814307       -159.45450872624713     
   6584.8552430937661        136.85016641542410       -155.22604400673632     
   6584.5763006969419        141.65240616961634       -150.84449149228894     
   6584.2868180415171        146.31421643444978       -146.31421643434379     
   6583.9871121614187        150.83099391244477       -141.63973109825980     