 VARIABLES = "x_1", "x_2", "x_3"
 ZONE F = POINT , I =         201  , J =         101
   5633.2103348787050        0.0000000000000000        0.0000000000000000     
   5633.2103348787050        0.0000000000000000        0.0000000000000000     
   5633.2103348787050        0.0000000000000000        0.0000000000000000     
   5633.2103348787050        0.0000000000000000        0.0000000000000000     
   5633.2103348787050        0.0000000000000000        0.0000000000000000     
   5633.2103348787050        0.0000000000000000        0.0000000000000000     
   5633.2103348787050        0.0000000000000000        0.0000000000000000     
   5633.2103348787050        0.0000000000000000        0.0000000000000000     
   5633.2103348787050        0.0000000000000000        0.0000000000000000     
   5633.2103348787050        0.0000000000000000        0.0000000000000000     
   5633.2103348787050        0.0000000000000000        0.0000000000000000     
   5633.2103348787050        0.0000000000000000        0.0000000000000000     
   5633.2103348787050        0.0000000000000000        0.0000000000000000     
   5633.2103348787050        0.0000000000000000        0.0000000000000000     
   5633.2103348787050        0.0000000000000000        0.0000000000000000     
   5633.2103348787050        0.0000000000000000        0.0000000000000000     
   5633.2103348787050        0.0000000000000000        0.0000000000000000     
   5633.2103348787050        0.0000000000000000        0.0000000000000000     
   5633.2103348787050        0.0000000000000000        0.0000000000000000     
   5633.2103348787050        0.0000000000000000        0.0000000000000000     
   5633.2103348787050        0.0000000000000000        0.0000000000000000     
   5633.2103348787050        0.0000000000000000        0.0000000000000000     
   5633.2103348787050        0.0000000000000000        0.0000000000000000     
   5633.2103348787050        0.0000000000000000        0.0000000000000000     
   5633.2103348787050        0.0000000000000000        0.0000000000000000     
   5633.2103348787050        0.0000000000000000        0.0000000000000000     
   5633.2103348787050        0.0000000000000000        0.0000000000000000     
   5633.2103348787050        0.0000000000000000        0.0000000000000000     
   5633.2103348787050        0.0000000000000000        0.0000000000000000     
   5633.2103348787050        0.0000000000000000        0.0000000000000000     
   5633.2103348787050        0.0000000000000000        0.0000000000000000     
   5633.2103348787050        0.0000000000000000        0.0000000000000000     
   5633.2103348787050        0.0000000000000000        0.0000000000000000     
   5633.2103348787050        0.0000000000000000        0.0000000000000000     
   5633.2103348787050        0.0000000000000000        0.0000000000000000     
   5633.2103348787050        0.0000000000000000        0.0000000000000000     
   5633.2103348787050        0.0000000000000000        0.0000000000000000     
   5633.2103348787050        0.0000000000000000        0.0000000000000000     
   5633.2103348787050        0.0000000000000000        0.0000000000000000     
   5633.2103348787050        0.0000000000000000        0.0000000000000000     
   5633.2103348787050        0.0000000000000000        0.0000000000000000     
   5633.2103348787050        0.0000000000000000        0.0000000000000000     
   5633.2103348787050        0.0000000000000000        0.0000000000000000     
   5633.2103348787050        0.0000000000000000        0.0000000000000000     
   5633.2103348787050        0.0000000000000000        0.0000000000000000     
   5633.2103348787050        0.0000000000000000        0.0000000000000000     
   5633.2103348787050        0.0000000000000000        0.0000000000000000     
   5633.2103348787050        0.0000000000000000        0.0000000000000000     
   5633.2103348787050        0.0000000000000000        0.0000000000000000     
   5633.2103348787050        0.0000000000000000        0.0000000000000000     
   5633.2103348787050       -0.0000000000000000        0.0000000000000000     
   5633.2103348787050       -0.0000000000000000        0.0000000000000000     
   5633.2103348787050       -0.0000000000000000        0.0000000000000000     
   5633.2103348787050       -0.0000000000000000        0.0000000000000000     
   5633.2103348787050       -0.0000000000000000        0.0000000000000000     
   5633.2103348787050       -0.0000000000000000        0.0000000000000000     
   5633.2103348787050       -0.0000000000000000        0.0000000000000000     
   5633.2103348787050       -0.0000000000000000        0.0000000000000000     
   5633.2103348787050       -0.0000000000000000        0.0000000000000000     
   5633.2103348787050       -0.0000000000000000        0.0000000000000000     
   5633.2103348787050       -0.0000000000000000        0.0000000000000000     
   5633.2103348787050       -0.0000000000000000        0.0000000000000000     
   5633.2103348787050       -0.0000000000000000        0.0000000000000000     
   5633.2103348787050       -0.0000000000000000        0.0000000000000000     
   5633.2103348787050       -0.0000000000000000        0.0000000000000000     
   5633.2103348787050       -0.0000000000000000        0.0000000000000000     
   5633.2103348787050       -0.0000000000000000        0.0000000000000000     
   5633.2103348787050       -0.0000000000000000        0.0000000000000000     
   5633.2103348787050       -0.0000000000000000        0.0000000000000000     
   5633.2103348787050       -0.0000000000000000        0.0000000000000000     
   5633.2103348787050       -0.0000000000000000        0.0000000000000000     
   5633.2103348787050       -0.0000000000000000        0.0000000000000000     
   5633.2103348787050       -0.0000000000000000        0.0000000000000000     
   5633.2103348787050       -0.0000000000000000        0.0000000000000000     
   5633.2103348787050       -0.0000000000000000        0.0000000000000000     
   5633.2103348787050       -0.0000000000000000        0.0000000000000000     
   5633.2103348787050       -0.0000000000000000        0.0000000000000000     
   5633.2103348787050       -0.0000000000000000        0.0000000000000000     
   5633.2103348787050       -0.0000000000000000        0.0000000000000000     
   5633.2103348787050       -0.0000000000000000        0.0000000000000000     
   5633.2103348787050       -0.0000000000000000        0.0000000000000000     
   5633.2103348787050       -0.0000000000000000        0.0000000000000000     
   5633.2103348787050       -0.0000000000000000        0.0000000000000000     
   5633.2103348787050       -0.0000000000000000        0.0000000000000000     
   5633.2103348787050       -0.0000000000000000        0.0000000000000000     
   5633.2103348787050       -0.0000000000000000        0.0000000000000000     
   5633.2103348787050       -0.0000000000000000        0.0000000000000000     
   5633.2103348787050       -0.0000000000000000        0.0000000000000000     
   5633.2103348787050       -0.0000000000000000        0.0000000000000000     
   5633.2103348787050       -0.0000000000000000        0.0000000000000000     
   5633.2103348787050       -0.0000000000000000        0.0000000000000000     
   5633.2103348787050       -0.0000000000000000        0.0000000000000000     
   5633.2103348787050       -0.0000000000000000        0.0000000000000000     
   5633.2103348787050       -0.0000000000000000        0.0000000000000000     
   5633.2103348787050       -0.0000000000000000        0.0000000000000000     
   5633.2103348787050       -0.0000000000000000        0.0000000000000000     
   5633.2103348787050       -0.0000000000000000        0.0000000000000000     
   5633.2103348787050       -0.0000000000000000        0.0000000000000000     
   5633.2103348787050       -0.0000000000000000        0.0000000000000000     
   5633.2103348787050       -0.0000000000000000        0.0000000000000000     
   5633.2103348787050       -0.0000000000000000       -0.0000000000000000     
   5633.2103348787050       -0.0000000000000000       -0.0000000000000000     
   5633.2103348787050       -0.0000000000000000       -0.0000000000000000     
   5633.2103348787050       -0.0000000000000000       -0.0000000000000000     
   5633.2103348787050       -0.0000000000000000       -0.0000000000000000     
   5633.2103348787050       -0.0000000000000000       -0.0000000000000000     
   5633.2103348787050       -0.0000000000000000       -0.0000000000000000     
   5633.2103348787050       -0.0000000000000000       -0.0000000000000000     
   5633.2103348787050       -0.0000000000000000       -0.0000000000000000     
   5633.2103348787050       -0.0000000000000000       -0.0000000000000000     
   5633.2103348787050       -0.0000000000000000       -0.0000000000000000     
   5633.2103348787050       -0.0000000000000000       -0.0000000000000000     
   5633.2103348787050       -0.0000000000000000       -0.0000000000000000     
   5633.2103348787050       -0.0000000000000000       -0.0000000000000000     
   5633.2103348787050       -0.0000000000000000       -0.0000000000000000     
   5633.2103348787050       -0.0000000000000000       -0.0000000000000000     
   5633.2103348787050       -0.0000000000000000       -0.0000000000000000     
   5633.2103348787050       -0.0000000000000000       -0.0000000000000000     
   5633.2103348787050       -0.0000000000000000       -0.0000000000000000     
   5633.2103348787050       -0.0000000000000000       -0.0000000000000000     
   5633.2103348787050       -0.0000000000000000       -0.0000000000000000     
   5633.2103348787050       -0.0000000000000000       -0.0000000000000000     
   5633.2103348787050       -0.0000000000000000       -0.0000000000000000     
   5633.2103348787050       -0.0000000000000000       -0.0000000000000000     
   5633.2103348787050       -0.0000000000000000       -0.0000000000000000     
   5633.2103348787050       -0.0000000000000000       -0.0000000000000000     
   5633.2103348787050       -0.0000000000000000       -0.0000000000000000     
   5633.2103348787050       -0.0000000000000000       -0.0000000000000000     
   5633.2103348787050       -0.0000000000000000       -0.0000000000000000     
   5633.2103348787050       -0.0000000000000000       -0.0000000000000000     
   5633.2103348787050       -0.0000000000000000       -0.0000000000000000     
   5633.2103348787050       -0.0000000000000000       -0.0000000000000000     
   5633.2103348787050       -0.0000000000000000       -0.0000000000000000     
   5633.2103348787050       -0.0000000000000000       -0.0000000000000000     
   5633.2103348787050       -0.0000000000000000       -0.0000000000000000     
   5633.2103348787050       -0.0000000000000000       -0.0000000000000000     
   5633.2103348787050       -0.0000000000000000       -0.0000000000000000     
   5633.2103348787050       -0.0000000000000000       -0.0000000000000000     
   5633.2103348787050       -0.0000000000000000       -0.0000000000000000     
   5633.2103348787050       -0.0000000000000000       -0.0000000000000000     
   5633.2103348787050       -0.0000000000000000       -0.0000000000000000     
   5633.2103348787050       -0.0000000000000000       -0.0000000000000000     
   5633.2103348787050       -0.0000000000000000       -0.0000000000000000     
   5633.2103348787050       -0.0000000000000000       -0.0000000000000000     
   5633.2103348787050       -0.0000000000000000       -0.0000000000000000     
   5633.2103348787050       -0.0000000000000000       -0.0000000000000000     
   5633.2103348787050       -0.0000000000000000       -0.0000000000000000     
   5633.2103348787050       -0.0000000000000000       -0.0000000000000000     
   5633.2103348787050       -0.0000000000000000       -0.0000000000000000     
   5633.2103348787050       -0.0000000000000000       -0.0000000000000000     
   5633.2103348787050        0.0000000000000000       -0.0000000000000000     
   5633.2103348787050        0.0000000000000000       -0.0000000000000000     
   5633.2103348787050        0.0000000000000000       -0.0000000000000000     
   5633.2103348787050        0.0000000000000000       -0.0000000000000000     
   5633.2103348787050        0.0000000000000000       -0.0000000000000000     
   5633.2103348787050        0.0000000000000000       -0.0000000000000000     
   5633.2103348787050        0.0000000000000000       -0.0000000000000000     
   5633.2103348787050        0.0000000000000000       -0.0000000000000000     
   5633.2103348787050        0.0000000000000000       -0.0000000000000000     
   5633.2103348787050        0.0000000000000000       -0.0000000000000000     
   5633.2103348787050        0.0000000000000000       -0.0000000000000000     
   5633.2103348787050        0.0000000000000000       -0.0000000000000000     
   5633.2103348787050        0.0000000000000000       -0.0000000000000000     
   5633.2103348787050        0.0000000000000000       -0.0000000000000000     
   5633.2103348787050        0.0000000000000000       -0.0000000000000000     
   5633.2103348787050        0.0000000000000000       -0.0000000000000000     
   5633.2103348787050        0.0000000000000000       -0.0000000000000000     
   5633.2103348787050        0.0000000000000000       -0.0000000000000000     
   5633.2103348787050        0.0000000000000000       -0.0000000000000000     
   5633.2103348787050        0.0000000000000000       -0.0000000000000000     
   5633.2103348787050        0.0000000000000000       -0.0000000000000000     
   5633.2103348787050        0.0000000000000000       -0.0000000000000000     
   5633.2103348787050        0.0000000000000000       -0.0000000000000000     
   5633.2103348787050        0.0000000000000000       -0.0000000000000000     
   5633.2103348787050        0.0000000000000000       -0.0000000000000000     
   5633.2103348787050        0.0000000000000000       -0.0000000000000000     
   5633.2103348787050        0.0000000000000000       -0.0000000000000000     
   5633.2103348787050        0.0000000000000000       -0.0000000000000000     
   5633.2103348787050        0.0000000000000000       -0.0000000000000000     
   5633.2103348787050        0.0000000000000000       -0.0000000000000000     
   5633.2103348787050        0.0000000000000000       -0.0000000000000000     
   5633.2103348787050        0.0000000000000000       -0.0000000000000000     
   5633.2103348787050        0.0000000000000000       -0.0000000000000000     
   5633.2103348787050        0.0000000000000000       -0.0000000000000000     
   5633.2103348787050        0.0000000000000000       -0.0000000000000000     
   5633.2103348787050        0.0000000000000000       -0.0000000000000000     
   5633.2103348787050        0.0000000000000000       -0.0000000000000000     
   5633.2103348787050        0.0000000000000000       -0.0000000000000000     
   5633.2103348787050        0.0000000000000000       -0.0000000000000000     
   5633.2103348787050        0.0000000000000000       -0.0000000000000000     
   5633.2103348787050        0.0000000000000000       -0.0000000000000000     
   5633.2103348787050        0.0000000000000000       -0.0000000000000000     
   5633.2103348787050        0.0000000000000000       -0.0000000000000000     
   5633.2103348787050        0.0000000000000000       -0.0000000000000000     
   5633.2103348787050        0.0000000000000000       -0.0000000000000000     
   5633.2103348787050        0.0000000000000000       -0.0000000000000000     
   5633.2103348787050        0.0000000000000000       -0.0000000000000000     
   5633.2103348787050        0.0000000000000000       -0.0000000000000000     
   5633.2103348787050        0.0000000000000000       -0.0000000000000000     
   5633.2103348787050        0.0000000000000000       -0.0000000000000000     
   5633.2103348787050        0.0000000000000000        0.0000000000000000     
   5649.5155523611884        177.54317876456432        0.0000000000000000     
   5647.7377271452251        177.39972908382617        5.5750110822071077     
   5645.9541139581561        177.08113600030651        11.141000748358319     
   5644.1674975482974        176.58791235727793        16.692472367611725     
   5642.3806597022040        175.92074280113877        22.223958093846999     
   5640.5963725604688        175.08048201590566        27.730024155841114     
   5638.8173920198305        174.06815280478503        33.205276028855408     
   5637.0464512417766        172.88494402750453        38.644363484341206     
   5635.2862542869962        171.53220840201374        44.041985515142478     
   5633.5394698941718        170.01146017903952        49.392895134223160     
   5631.8087254206694        168.32437269780658        54.691904045569672     
   5630.0966009618196        166.47277583101450        59.933887186513374     
   5628.4056236644119        164.45865332689559        65.113787141277243     
   5626.7382622491732        162.28414005587646        70.226618426076271     
   5625.0969217558741        159.95151916902410        75.267471646585165     
   5623.4839385238747        157.46321917508891        80.231517529033084     
   5621.9015754197599        154.82181094255324        85.114010826584845     
   5620.3520173228289        152.03000463267531        89.910294103025350     
   5618.8373668782160        149.09064656907387        94.615801396076307     
   5617.3596405263515        146.00671604894072        99.226061762936212     
   5615.9207648165866        142.78132210050111        103.73670271085481     
   5614.5225730118582        139.41770019086584        108.14345351572206     
   5613.1668019902327        135.91920888793976        112.44214843177576     
   5611.8550894483642        132.28932647957572        116.62872979560909     
   5610.5889714109135        128.53164755268929        120.69925102769118     
   5609.3698800491193        124.64987953458798        124.64987953460088     
   5608.1991418108164        120.64783919831643        128.47689951511859     
   5607.0779758633926        116.52944913338584        132.17671467322441     
   5606.0074928502363        112.29873418283844        135.74585084091322     
   5604.9886939605340        107.95981784720621        139.18095851356631     
   5604.0224703113463        103.51691865555404        142.47881530040834     
   5603.1096026401792        98.974346503457170        145.63632829233975     
   5602.2507613054358        94.336498957453202        148.65053634916353     
   5601.4465065914310        89.607857525231495        151.51861230793006     
   5600.6972893137763        84.792983890578810        154.23786511380081     
   5600.0034517203758        79.896516111895437        156.80574187449554     
   5599.3652286823335        74.923164782923266        159.21982983902490     
   5598.7827491685503        69.877709154201341        161.47785830104405     
   5598.2560379969163        64.764993213669698        163.57770042677851     
   5597.7850178544077        59.589921724794138        165.51737500708697     
   5597.3695115776418        54.357456220574598        167.29504813283415     
   5597.0092446848357        49.072610951830349        168.90903479235871     
   5596.7038481493400        43.740448788226331        170.35780038943136     
   5596.4528614044002        38.366077070617528        171.63996217972468     
   5596.2557355680337        32.954643413437111        172.75429062344509     
   5596.1118368764082        27.511331456043862        173.69971065142889     
   5596.0204503133737        22.041356562167348        174.47530284166660     
   5595.9807834233588        16.549961466851215        175.08030450291031     
   5595.9919702941734        11.042411870585394        175.51411066172832     
   5596.0530756957987        5.5239919806421893        175.77627494911172     
   5596.1630993606814       -1.8186629056970223E-011   175.86651038250488     
   5596.3209803906566       -5.5242564355301962        175.78469003893665     
   5596.5256017750844       -11.043464870452761        175.53084761476143     
   5596.7757950045234       -16.552312692086982        175.10517786739840     
   5597.0703447637361       -22.045491839788429        174.50803693436330     
   5597.4079936876524       -27.517703558834857        173.73994252484439     
   5597.7874471636178       -32.963663195954211        172.80157397906709     
   5598.2073781629451       -38.378105033158405        171.69377219072518     
   5598.6664320847676       -43.755787156066859        170.41753938783825     
   5599.1632315949719       -49.091496352445404        168.97403876751474     
   5599.6963814430137       -54.380053036234223        167.36459398026443     
   5600.2644732393665       -59.616316191896829        165.59068845970930     
   5600.8660901765097       -64.795188333496483        163.65396459379033     
   5601.4998116764136       -69.911620472495258        161.55622273385293     
   5602.1642179477749       -74.960617087886433        159.29942003832019     
   5602.8578944364508       -79.937241091907183        156.88566914802291     
   5603.5794361529252       -84.836618784245957        154.31723669065155     
   5604.3274518610588       -89.653944787357545        151.59654161222164     
   5605.1005681127926       -94.384486955230869        148.72615333389786     
   5605.8974331140989       -99.023591247725165        145.70878973300424     
   5606.7167204080215       -103.56668656239917        142.54731494754770     
   5607.5571323613231       -108.00928951560782        139.24473700410365     
   5608.4174034420330       -112.34700916453534        135.80420526944744     
   5609.2963032759690       -116.57555166177076        132.22900772685961     
   5610.1926394711027       -120.69072483401303        128.52256807858572     
   5611.1052601996498       -124.68844267652386        124.68844267648512     
   5612.0330565286076       -128.56472975501592        120.73031728345589     
   5612.9749644905769       -132.31572550678683        116.65200366877004     
   5613.9299668876401       -135.93768843306935        112.45743604098841     
   5614.8970948222423       -139.42700017477750        108.15066732264920     
   5615.8754289500757       -142.78016946407519        103.73586527142692     
   5616.8641004511455       -145.99383594448483        99.217308452942817     
   5617.8622917163448       -149.06477385257850        94.599382070865190     
   5618.8692367480344       -151.98989555465741        89.886573660366977     
   5619.8842212743830       -154.76625493222281        85.083468651406719     
   5620.9065825783246       -157.39105061046067        80.194745808660528     
   5621.9357090432732       -159.86162902441990        75.225172555261040     
   5622.9710394189424       -162.17548731803311        70.179600187785681     
   5624.0120618117280       -164.33027607162333        65.062958990182992     
   5625.0583124053464       -166.32380185404571        59.880253254530892     
   5626.1093739186099       -168.15402959613579        54.636556216680923     
   5627.1648738082677       -169.81908478265680        49.337004914961412     
   5628.2244822260200       -171.31725546047008        43.986794980183582     
   5629.2879097398463       -172.64699406117850        38.591175365225318     
   5630.3549048308259       -173.80691903701481        33.155443022451955     
   5631.4252511776549       -174.79581630926015        27.684937537177390     
   5632.4987647419339       -175.61264052897491        22.185035725269781     
   5633.5752906682937       -176.25651615031043        16.661146202869254     
   5634.6547000141818       -176.72673831712714        11.118703936008917     
   5635.7368863249922       -177.02277356408803        5.5631647777206519     
   5636.8217620708856       -177.14426033380272       -3.6637526328977790E-011
   5637.9092549623756       -177.09100931198347       -5.5653091725609931     
   5638.9993041623256       -176.86300358292112       -11.127277019937996     
   5640.0918564125350       -176.46039860790501       -16.680418769474773     
   5641.1868620935993       -175.88352202949076       -22.219256016936360     
   5642.2842712371003       -175.13287330476012       -27.738322120841399     
   5643.3840295095142       -174.20912317091970       -33.232167564443472     
   5644.4860741874982       -173.11311294674917       -38.695365280404040     
   5645.5903301444232       -171.84585367353307       -44.122515933542253     
   5646.6967058680402       -170.40852509919031       -49.508253157431341     
   5647.8050895293372       -168.80247450936486       -54.847248740988221     
   5648.9153451224729       -167.02921540923995       -60.134217761572842     
   5650.0273086956504       -165.09042605981114       -65.363923661472711     
   5651.1407846925422       -162.98794787228115       -70.531183264990418     
   5652.2555424236252       -160.72378366413935       -75.630871733675434     
   5653.3713126864495       -158.30009578035413       -80.657927457543508     
   5654.4877845533683       -155.71920408294130       -85.607356880401042     
   5655.6046023448735       -152.98358381198494       -90.474239257640676     
   5656.7213628059362       -150.09586332097132       -95.253731345088639     
   5657.8376125022496       -147.05882168906530       -99.941072017667437     
   5658.9528454523834       -143.87538621270969       -104.53158681678437     
   5660.0665010112070       -140.54862977866773       -109.02069242546648     
   5661.1779620188581       -137.08176812035691       -113.40390107033366     
   5662.2865532287506       -133.47815695905368       -117.67682484953413     
   5663.3915400269680       -129.74128903127138       -121.83517998575991     
   5664.4921274543376       -125.87479100334816       -125.87479100341331     
   5665.5874595412488       -121.88242027401924       -129.79159482890790     
   5666.6766189641439       -117.76806166550486       -133.58164481296674     
   5667.7586270311858       -113.53572400341220       -137.24111467361536     
   5668.8324440033721       -109.18953658554561       -140.76630235837447     
   5669.8969697558387       -104.73374553953421       -144.15363382392485     
   5670.9510447827224       -100.17271006903430       -147.39966673125909     
   5671.9934515473933       -95.510898588146091       -150.50109405404487     
   5673.0229161783518       -90.752884743594961       -153.45474759761598     
   5674.0381105094430       -85.903343324189095       -156.25760142566961     
   5675.0376544615337       -80.967046057055740       -158.90677519140681     
   5676.0201187610437       -75.948857290205680       -161.39953736948391     
   5676.9840279891641       -70.853729561054095       -163.73330838478105     
   5677.9278639539161       -65.686699050668196       -165.90566363361810     
   5678.8500693755195       -60.452880923683921       -167.91433639268186     
   5679.7490518739742       -55.157464554073123       -169.75722061056555     
   5680.6231882460552       -49.805708637210429       -171.43237357647416     
   5681.4708290173603       -44.402936189023194       -172.93801846031525     
   5682.2903032535442       -38.954529433370126       -174.27254671809231     
   5683.0799236132643       -33.465924579217990       -175.43452035623204     
   5683.8379916240119       -27.942606489633693       -176.42267404823599     
   5684.5628031605647       -22.390103245114748       -177.23591709683578     
   5685.2526541045190       -16.813980604303868       -177.87333523466702     
   5685.9058461621207       -11.219836365702305       -178.33419225635848     
   5686.5206928165289       -5.6132946345870591       -178.61793147486469     
   5687.0955253896082        5.5525803881231245E-011  -178.72417699485746     
   5687.6286991874440        5.6143883731282989       -178.65273479603502     
   5688.1185997030498        11.224202729470692       -178.40359361931115     
   5688.5636488490018        16.823772781614107       -177.97692564901055     
   5688.9623111923411        22.407431831867445       -177.37308698442575     
   5689.3131001636439        27.969522950704402       -176.59261789438207     
   5689.6145842119558        33.504405202806844       -175.63624284880879     
   5689.8653928773010        39.006459911500635       -174.50487032173791     
   5690.0642227524513        44.470096951748239       -173.19959236062445     
   5690.2098433060410        49.889761061302970       -171.72168391742707     
   5690.3011025393898        55.259938159127515       -170.07260193747771     
   5690.3369324501064        60.575161659703539       -168.25398420282406     
   5690.3163542761513        65.830018771448849       -166.26764792742105     
   5690.2384834950208        71.019156767091616       -164.11558810229701     
   5690.1025345537155        76.137289213548186       -161.79997558960247     
   5689.9078253063235        81.179202148616056       -159.32315496526556     
   5689.6537811373819        86.139760191614840       -156.68764211083035     
   5689.3399387506543        91.013912575014828       -153.89612155591882     
   5688.9659496044469        95.796699084055291       -150.95144357364504     
   5688.5315829764186        100.48325589141021       -147.85662103220250     
   5688.0367286424016        105.06882127406986       -144.61482600673989     
   5687.4813991558412        109.54874119981397       -141.22938615652964     
   5686.8657317162306        113.91847477091380       -137.70378087331093     
   5686.1899896169962        118.17359951305521       -134.04163720754138     
   5685.4545632653444        122.30981649788437       -130.24672558012580     
   5684.6599707685955        126.32295528807030       -126.32295528797881     
   5683.8068580836962        130.20897869432460       -122.27436981253956     