 VARIABLES = "x_1", "x_2", "x_3"
 ZONE F = POINT , I =         201  , J =         101
   7899.1786794193604        0.0000000000000000        0.0000000000000000     
   7899.1721385500186        0.0000000000000000        0.0000000000000000     
   7899.1649161379855        0.0000000000000000        0.0000000000000000     
   7899.1570406923065        0.0000000000000000        0.0000000000000000     
   7899.1485432994768        0.0000000000000000        0.0000000000000000     
   7899.1394575006789        0.0000000000000000        0.0000000000000000     
   7899.1298191593087        0.0000000000000000        0.0000000000000000     
   7899.1196663193450        0.0000000000000000        0.0000000000000000     
   7899.1090390551226        0.0000000000000000        0.0000000000000000     
   7899.0979793130773        0.0000000000000000        0.0000000000000000     
   7899.0865307461318        0.0000000000000000        0.0000000000000000     
   7899.0747385413188        0.0000000000000000        0.0000000000000000     
   7899.0626492413858        0.0000000000000000        0.0000000000000000     
   7899.0503105610296        0.0000000000000000        0.0000000000000000     
   7899.0377711985475        0.0000000000000000        0.0000000000000000     
   7899.0250806435834        0.0000000000000000        0.0000000000000000     
   7899.0122889817849        0.0000000000000000        0.0000000000000000     
   7898.9994466971002        0.0000000000000000        0.0000000000000000     
   7898.9866044725295        0.0000000000000000        0.0000000000000000     
   7898.9738129900943        0.0000000000000000        0.0000000000000000     
   7898.9611227308305        0.0000000000000000        0.0000000000000000     
   7898.9485837755674        0.0000000000000000        0.0000000000000000     
   7898.9362456073222        0.0000000000000000        0.0000000000000000     
   7898.9241569160458        0.0000000000000000        0.0000000000000000     
   7898.9123654065252        0.0000000000000000        0.0000000000000000     
   7898.9009176101572        0.0000000000000000        0.0000000000000000     
   7898.8898587013973        0.0000000000000000        0.0000000000000000     
   7898.8792323195348        0.0000000000000000        0.0000000000000000     
   7898.8690803965601        0.0000000000000000        0.0000000000000000     
   7898.8594429917657        0.0000000000000000        0.0000000000000000     
   7898.8503581337345        0.0000000000000000        0.0000000000000000     
   7898.8418616703511        0.0000000000000000        0.0000000000000000     
   7898.8339871274247        0.0000000000000000        0.0000000000000000     
   7898.8267655764703        0.0000000000000000        0.0000000000000000     
   7898.8202255121641        0.0000000000000000        0.0000000000000000     
   7898.8143927399879        0.0000000000000000        0.0000000000000000     
   7898.8092902744493        0.0000000000000000        0.0000000000000000     
   7898.8049382483605        0.0000000000000000        0.0000000000000000     
   7898.8013538334153        0.0000000000000000        0.0000000000000000     
   7898.7985511725028        0.0000000000000000        0.0000000000000000     
   7898.7965413239372        0.0000000000000000        0.0000000000000000     
   7898.7953322178455        0.0000000000000000        0.0000000000000000     
   7898.7949286249168        0.0000000000000000        0.0000000000000000     
   7898.7953321375744        0.0000000000000000        0.0000000000000000     
   7898.7965411637151        0.0000000000000000        0.0000000000000000     
   7898.7985509329592        0.0000000000000000        0.0000000000000000     
   7898.8013535154951        0.0000000000000000        0.0000000000000000     
   7898.8049378533196        0.0000000000000000        0.0000000000000000     
   7898.8092898038476        0.0000000000000000        0.0000000000000000     
   7898.8143921956780        0.0000000000000000        0.0000000000000000     
   7898.8202248962998       -0.0000000000000000        0.0000000000000000     
   7898.8267648914771       -0.0000000000000000        0.0000000000000000     
   7898.8339863760075       -0.0000000000000000        0.0000000000000000     
   7898.8418608554730       -0.0000000000000000        0.0000000000000000     
   7898.8503572586105       -0.0000000000000000        0.0000000000000000     
   7898.8594420598502       -0.0000000000000000        0.0000000000000000     
   7898.8690794115309       -0.0000000000000000        0.0000000000000000     
   7898.8792312852784       -0.0000000000000000        0.0000000000000000     
   7898.8898576219945       -0.0000000000000000        0.0000000000000000     
   7898.9009164898707       -0.0000000000000000        0.0000000000000000     
   7898.9123642497689       -0.0000000000000000        0.0000000000000000     
   7898.9241557273881       -0.0000000000000000        0.0000000000000000     
   7898.9362443914533       -0.0000000000000000        0.0000000000000000     
   7898.9485825372858       -0.0000000000000000        0.0000000000000000     
   7898.9611214750248       -0.0000000000000000        0.0000000000000000     
   7898.9738117217203       -0.0000000000000000        0.0000000000000000     
   7898.9866031965876       -0.0000000000000000        0.0000000000000000     
   7898.9994454186317       -0.0000000000000000        0.0000000000000000     
   7899.0122877058311       -0.0000000000000000        0.0000000000000000     
   7899.0250793751820       -0.0000000000000000        0.0000000000000000     
   7899.0377699427027       -0.0000000000000000        0.0000000000000000     
   7899.0503093226998       -0.0000000000000000        0.0000000000000000     
   7899.0626480254587       -0.0000000000000000        0.0000000000000000     
   7899.0747373525955       -0.0000000000000000        0.0000000000000000     
   7899.0865295893000       -0.0000000000000000        0.0000000000000000     
   7899.0979781927035       -0.0000000000000000        0.0000000000000000     
   7899.1090379756279       -0.0000000000000000        0.0000000000000000     
   7899.1196652849940       -0.0000000000000000        0.0000000000000000     
   7899.1298181741813       -0.0000000000000000        0.0000000000000000     
   7899.1394565686651       -0.0000000000000000        0.0000000000000000     
   7899.1485424242555       -0.0000000000000000        0.0000000000000000     
   7899.1570398773292       -0.0000000000000000        0.0000000000000000     
   7899.1649153864728       -0.0000000000000000        0.0000000000000000     
   7899.1721378649345       -0.0000000000000000        0.0000000000000000     
   7899.1786788034096       -0.0000000000000000        0.0000000000000000     
   7899.1845123826342       -0.0000000000000000        0.0000000000000000     
   7899.1896155753602       -0.0000000000000000        0.0000000000000000     
   7899.1939682373222       -0.0000000000000000        0.0000000000000000     
   7899.1975531867902       -0.0000000000000000        0.0000000000000000     
   7899.2003562724476       -0.0000000000000000        0.0000000000000000     
   7899.2023664292819       -0.0000000000000000        0.0000000000000000     
   7899.2035757223020       -0.0000000000000000        0.0000000000000000     
   7899.2039793778731       -0.0000000000000000        0.0000000000000000     
   7899.2035758025850       -0.0000000000000000        0.0000000000000000     
   7899.2023665895304       -0.0000000000000000        0.0000000000000000     
   7899.2003565120276       -0.0000000000000000        0.0000000000000000     
   7899.1975535047586       -0.0000000000000000        0.0000000000000000     
   7899.1939686324222       -0.0000000000000000        0.0000000000000000     
   7899.1896160460310       -0.0000000000000000        0.0000000000000000     
   7899.1845129270187       -0.0000000000000000        0.0000000000000000     
   7899.1786794193604       -0.0000000000000000       -0.0000000000000000     
   7899.1721385500205       -0.0000000000000000       -0.0000000000000000     
   7899.1649161379864       -0.0000000000000000       -0.0000000000000000     
   7899.1570406923065       -0.0000000000000000       -0.0000000000000000     
   7899.1485432994759       -0.0000000000000000       -0.0000000000000000     
   7899.1394575006789       -0.0000000000000000       -0.0000000000000000     
   7899.1298191593078       -0.0000000000000000       -0.0000000000000000     
   7899.1196663193450       -0.0000000000000000       -0.0000000000000000     
   7899.1090390551190       -0.0000000000000000       -0.0000000000000000     
   7899.0979793130773       -0.0000000000000000       -0.0000000000000000     
   7899.0865307461345       -0.0000000000000000       -0.0000000000000000     
   7899.0747385413197       -0.0000000000000000       -0.0000000000000000     
   7899.0626492413867       -0.0000000000000000       -0.0000000000000000     
   7899.0503105610287       -0.0000000000000000       -0.0000000000000000     
   7899.0377711985475       -0.0000000000000000       -0.0000000000000000     
   7899.0250806435834       -0.0000000000000000       -0.0000000000000000     
   7899.0122889817849       -0.0000000000000000       -0.0000000000000000     
   7898.9994466971002       -0.0000000000000000       -0.0000000000000000     
   7898.9866044725295       -0.0000000000000000       -0.0000000000000000     
   7898.9738129900970       -0.0000000000000000       -0.0000000000000000     
   7898.9611227308305       -0.0000000000000000       -0.0000000000000000     
   7898.9485837755674       -0.0000000000000000       -0.0000000000000000     
   7898.9362456073222       -0.0000000000000000       -0.0000000000000000     
   7898.9241569160486       -0.0000000000000000       -0.0000000000000000     
   7898.9123654065252       -0.0000000000000000       -0.0000000000000000     
   7898.9009176101599       -0.0000000000000000       -0.0000000000000000     
   7898.8898587013982       -0.0000000000000000       -0.0000000000000000     
   7898.8792323195357       -0.0000000000000000       -0.0000000000000000     
   7898.8690803965610       -0.0000000000000000       -0.0000000000000000     
   7898.8594429917657       -0.0000000000000000       -0.0000000000000000     
   7898.8503581337345       -0.0000000000000000       -0.0000000000000000     
   7898.8418616703511       -0.0000000000000000       -0.0000000000000000     
   7898.8339871274266       -0.0000000000000000       -0.0000000000000000     
   7898.8267655764703       -0.0000000000000000       -0.0000000000000000     
   7898.8202255121660       -0.0000000000000000       -0.0000000000000000     
   7898.8143927399851       -0.0000000000000000       -0.0000000000000000     
   7898.8092902744502       -0.0000000000000000       -0.0000000000000000     
   7898.8049382483596       -0.0000000000000000       -0.0000000000000000     
   7898.8013538334153       -0.0000000000000000       -0.0000000000000000     
   7898.7985511725028       -0.0000000000000000       -0.0000000000000000     
   7898.7965413239353       -0.0000000000000000       -0.0000000000000000     
   7898.7953322178455       -0.0000000000000000       -0.0000000000000000     
   7898.7949286249168       -0.0000000000000000       -0.0000000000000000     
   7898.7953321375780       -0.0000000000000000       -0.0000000000000000     
   7898.7965411637133       -0.0000000000000000       -0.0000000000000000     
   7898.7985509329592       -0.0000000000000000       -0.0000000000000000     
   7898.8013535154951       -0.0000000000000000       -0.0000000000000000     
   7898.8049378533196       -0.0000000000000000       -0.0000000000000000     
   7898.8092898038467       -0.0000000000000000       -0.0000000000000000     
   7898.8143921956762       -0.0000000000000000       -0.0000000000000000     
   7898.8202248962998        0.0000000000000000       -0.0000000000000000     
   7898.8267648914798        0.0000000000000000       -0.0000000000000000     
   7898.8339863760075        0.0000000000000000       -0.0000000000000000     
   7898.8418608554739        0.0000000000000000       -0.0000000000000000     
   7898.8503572586105        0.0000000000000000       -0.0000000000000000     
   7898.8594420598529        0.0000000000000000       -0.0000000000000000     
   7898.8690794115309        0.0000000000000000       -0.0000000000000000     
   7898.8792312852756        0.0000000000000000       -0.0000000000000000     
   7898.8898576219935        0.0000000000000000       -0.0000000000000000     
   7898.9009164898680        0.0000000000000000       -0.0000000000000000     
   7898.9123642497698        0.0000000000000000       -0.0000000000000000     
   7898.9241557273881        0.0000000000000000       -0.0000000000000000     
   7898.9362443914551        0.0000000000000000       -0.0000000000000000     
   7898.9485825372858        0.0000000000000000       -0.0000000000000000     
   7898.9611214750212        0.0000000000000000       -0.0000000000000000     
   7898.9738117217203        0.0000000000000000       -0.0000000000000000     
   7898.9866031965894        0.0000000000000000       -0.0000000000000000     
   7898.9994454186299        0.0000000000000000       -0.0000000000000000     
   7899.0122877058311        0.0000000000000000       -0.0000000000000000     
   7899.0250793751829        0.0000000000000000       -0.0000000000000000     
   7899.0377699427045        0.0000000000000000       -0.0000000000000000     
   7899.0503093226998        0.0000000000000000       -0.0000000000000000     
   7899.0626480254577        0.0000000000000000       -0.0000000000000000     
   7899.0747373525937        0.0000000000000000       -0.0000000000000000     
   7899.0865295893009        0.0000000000000000       -0.0000000000000000     
   7899.0979781927044        0.0000000000000000       -0.0000000000000000     
   7899.1090379756279        0.0000000000000000       -0.0000000000000000     
   7899.1196652849931        0.0000000000000000       -0.0000000000000000     
   7899.1298181741813        0.0000000000000000       -0.0000000000000000     
   7899.1394565686669        0.0000000000000000       -0.0000000000000000     
   7899.1485424242555        0.0000000000000000       -0.0000000000000000     
   7899.1570398773310        0.0000000000000000       -0.0000000000000000     
   7899.1649153864728        0.0000000000000000       -0.0000000000000000     
   7899.1721378649354        0.0000000000000000       -0.0000000000000000     
   7899.1786788034105        0.0000000000000000       -0.0000000000000000     
   7899.1845123826342        0.0000000000000000       -0.0000000000000000     
   7899.1896155753602        0.0000000000000000       -0.0000000000000000     
   7899.1939682373240        0.0000000000000000       -0.0000000000000000     
   7899.1975531867911        0.0000000000000000       -0.0000000000000000     
   7899.2003562724467        0.0000000000000000       -0.0000000000000000     
   7899.2023664292819        0.0000000000000000       -0.0000000000000000     
   7899.2035757223011        0.0000000000000000       -0.0000000000000000     
   7899.2039793778740        0.0000000000000000       -0.0000000000000000     
   7899.2035758025841        0.0000000000000000       -0.0000000000000000     
   7899.2023665895304        0.0000000000000000       -0.0000000000000000     
   7899.2003565120276        0.0000000000000000       -0.0000000000000000     
   7899.1975535047568        0.0000000000000000       -0.0000000000000000     
   7899.1939686324222        0.0000000000000000       -0.0000000000000000     
   7899.1896160460310        0.0000000000000000       -0.0000000000000000     
   7899.1845129270177        0.0000000000000000       -0.0000000000000000     
   7899.1786794193604        0.0000000000000000        0.0000000000000000     
   8012.6793660826452        251.80859347859999        0.0000000000000000     
   8016.5283995754826        251.80524220205541        7.9132985325527878     
   8020.2827850603435        251.55018229974826        15.826196016984643     
   8023.9401335904286        251.04337135387908        23.730585426018862     
   8027.4980025306759        250.28502977932510        31.618352246389922     
   8030.9538799153397        249.27564099127747        39.481382884946164     
   8034.3051697147293        248.01595134848438        47.311573032670282     
   8037.5491781982209        246.50696988402640        55.100835987813632     
   8040.6831015673706        244.74996783408517        62.841110941202224     
   8043.7040150184175        242.74647797346017        70.524371228377674     
   8046.6088633781201        240.49829376468429        78.142632554558986     
   8049.3944534406810        238.00746832552070        85.687961199430205     
   8052.0574481170952        235.27631321745210        93.152482209461567     
   8054.5943624914507        232.30739705552540        100.52838758584915     
   8057.0015618619282        229.10354393764621        107.80794447620609     
   8059.2752618275244        225.66783168916342        114.98350337786290     
   8061.4115304651878        222.00358991639084        122.04750636004138     
   8063.4062926258875        218.11439786061416        128.99249531126588     
   8065.2553363626148        214.00408204216276        135.81112021718874     
   8066.9543214882278        209.67671368232769        142.49614747254691     
   8068.4987902464572        205.13660588929406        149.04046822926009     
   8069.8841800655118        200.38831059287085        155.43710678074999     
   8071.1058383502295        195.43661521165390        161.67922898043386     
   8072.1590392559820        190.28653903537659        167.76015069004785     
   8073.0390023750469        184.94332930459618        173.67334625102100     
   8073.7409132544171        179.41245696955622        179.41245696957481     
   8074.2599456524185        173.69961211005466        184.97129960359851     
   8074.5912854305452        167.81069899845167        190.34387483668192     
   8074.7301559660018        161.75183078857154        195.52437572199784     
   8074.6718449600021        155.52932381418728        200.50719607605927     
   8074.4117325066336        149.14969148203704        205.28693879975597     
   8073.9453202769128        142.61963774588887        209.85842410153549     
   8073.2682616630154        135.94605015005510        214.21669759517158     
   8072.3763927178670        129.13599243293922        218.35703824228619     
   8071.2657637160737        122.19669668367520        222.27496610769489     
   8069.9326711530648        115.13555504766981        225.96624989376372     
   8068.3736899907408        107.96011097987162        229.42691421832816     
   8066.5857059497330        100.67805004784336        232.65324659936442     
   8064.5659476408664        93.297190290180879        235.64180410855360     
   8062.3120183216724        85.825472139478819        238.38941965516545     
   8059.8219270578484        78.270947922855754        240.89320786134263     
   8057.0941190647909        70.641770956983748        243.15057048991093     
   8054.1275050007707        62.946184258583436        245.15920138630463     
   8050.9214889811428        55.192508895398603        246.91709089708755     
   8047.4759950824709        47.389132006709339        248.42252972889963     
   8043.7914921066740        39.544494526430555        249.67411221346046     
   8039.8690163785204        31.667078645718139        250.67073894653493     
   8035.7101923549590        23.765395055717232        251.41161877149514     
   8031.3172508324096        15.847970014575809        251.89627008130716     
   8026.6930445477665        7.9233322860586437        252.12452141639540     
   8021.8410609810053       -2.6069691883480098E-011   252.09651133988390     
   8016.7654321819182       -7.9135325128859035        251.81268757614905     
   8011.4709414601639       -15.808807856539859        251.27380540339189     
   8005.9630267971170       -23.677418620040669        250.48092529602417     
   8000.2477808592503       -31.511020284784898        249.43540981798694     
   7994.3319475161607       -39.301343931111752        248.13891977363880     
   7988.2229147915150       -47.040208686525808        246.59340962848776     
   7981.9287042019641       -54.719533858634534        244.80112221772953     
   7975.4579564670612       -62.331350697274225        242.76458276621520     
   7968.8199136023550       -69.867813732314985        240.48659224903830     
   7962.0243974374453       -77.321211636275095        237.97022012730685     
   7955.0817846307036       -84.683977564120383        235.21879649878949     
   7948.0029782823149       -91.948698926448301        232.23590370791425     
   7940.7993762765354       -99.108126556613414        229.02536746397413     
   7933.4828365126268       -106.15518323720195        225.59124752030081     
   7926.0656392111177       -113.08297155654139        221.93782797053453     
   7918.5604465076758       -119.88478107157626        218.06960722089570     
   7910.9802595705687       -126.55409475937932        213.99128769950860     
   7903.3383734991803       -133.08459474572234        209.70776536530195     
   7895.6483302799543       -139.47016730541608        205.22411907979196     
   7887.9238700924716       -145.70490713546928        200.54559990513019     
   7880.1788812716741       -151.78312090841629        195.67762039116454     
   7872.4273492426746       -157.69933011934867        190.62574391293060     
   7864.6833047518812       -163.44827324616770        185.39567411797978     
   7856.9607717223898       -169.02490724827916        179.99324454029195     
   7849.2737150626936       -174.42440843430487        174.42440843425067     
   7841.6359887560566       -179.64217273432064        168.69522887833674     
   7834.0612845529777       -184.67381541658716        162.81186919385866     
   7826.5630815819814       -189.51517029267362        156.78058371927366     
   7819.1545971837659       -194.16228845822988        150.60770897550282     
   7811.8487392616526       -198.61143661942441        144.29965525220291     
   7804.6580604267965       -202.85909505719252        137.86289863928090     
   7797.5947142003961       -206.90195528292813        131.30397352211338     
   7790.6704135174296       -210.73691744009744        124.62946555303124     
   7783.8963917572300       -214.36108750644874        117.84600510572319     
   7777.2833665060334       -217.77177435106185        110.96026121337590     
   7770.8415062356135       -220.96648669943727        103.97893598566924     
   7764.5804000604649       -223.94293005819537        96.908759494245928     
   7758.5090307139435       -226.69900364877384        89.756485111038572     
   7752.6357508616247       -229.23279739681766        82.528885278917897     
   7746.9682628477676       -231.54258902078598        75.232747689566736     
   7741.5136019487863       -233.62684125971208        67.874871839342816     
   7736.2781231856279       -235.48419927608251        60.462065930187606     
   7731.2674917255526       -237.11348826551847        53.001144079417848     
   7726.4866768825377       -238.51371130037978        45.498923799513200     
   7721.9399497051190       -239.68404742964995        37.962223706816410     
   7717.6308841202008       -240.62385005252858        30.397861416396907     
   7713.5623615819259       -241.33264557813519        22.812651579210605     
   7709.7365791556995       -241.81013237865363        15.213404017114774     
   7706.1550609490414       -242.05618003818688        7.6069219112677464     
   7702.8186727830898       -242.07082889459031       -5.0065840972724241E-011
   7699.7276399813036       -241.85428986667239       -7.6005772571263774     
   7696.8815681352708       -241.40694455443779       -15.188037589413845     
   7694.2794666912741       -240.72934559554656       -22.755622940406592     
   7691.9197751858346       -239.82221725693410       -30.296591643688384     
   7689.8003919435332       -238.68645623660902       -37.804220784135460     
   7687.9187050360561       -237.32313264707014       -45.271808774952831     
   7686.2716252880464       -235.73349114860147       -52.692678177567956     
   7684.8556211024470       -233.91895219793884       -60.060178787430793     
   7683.6667548662663       -231.88111337549873       -67.367691004537534     
   7682.7007206868639       -229.62175075253839       -74.608629503040689     
   7681.9528831990438       -227.14282025829615       -81.776447209693188     
   7681.4183171748573       -224.44645900637093       -88.864639596151989     
   7681.0918476609122       -221.53498653933696       -95.866749285395940     
   7680.9680903625067       -218.41090595087192       -102.77637096775163     
   7681.0414919901523       -215.07690484549516       -109.58715661733585     
   7681.3063702821219       -211.53585609735956       -116.29282099516986     
   7681.7569534169506       -207.79081837141109       -122.88714742086734     
   7682.3874185320201       -203.84503637258092       -129.36399379069837     
   7683.1919290691940       -199.70194079150110       -135.71729881605191     
   7684.1646706755137       -195.36514791847830       -141.94108845290668     
   7685.2998853966283       -190.83845890108728       -148.02948248993366     
   7686.5919039128876       -186.12585862470178       -153.97670126033412     
   7688.0351755827787       -181.23151419950878       -159.77707244050228     
   7689.6242960758536       -176.15977304198776       -165.42503789713484     
   7691.3540323971438       -170.91516054341164       -170.91516054350009     
   7693.2193451273733       -165.50237732257230       -176.24213116525422     
   7695.2154077279001       -159.92629606457112       -181.40077517645301     
   7697.3376227859217       -154.19195795207509       -186.38605926724901     
   7699.5816351039275       -148.30456869983919       -191.19309790617302     
   7701.9433415674393       -142.26949420747070       -195.81715966185178     
   7704.4188977563053       -136.09225584928339       -200.25367331147621     
   7707.0047212969512       -129.77852542360353       -204.49823370625387     
   7709.6974919856102       -123.33411978696763       -208.54660736742036     
   7712.4941487453425       -116.76499520127219       -212.39473779005965     
   7715.3918835120185       -110.07724142401740       -216.03875043595261     
   7718.3881321762137       -103.27707557333750       -219.47495740083383     
   7721.4805627384885       -96.370835800465429       -222.69986174573870     
   7724.6670608645245       -89.364974802669650       -225.71016148645472     
   7727.9457130535966       -82.266053209482990       -228.50275323940025     
   7731.3147876586099       -75.080732874274048       -231.07473552643359     
   7734.7727140178677       -67.815770101865240       -233.42341174508385     
   7738.3180599778198       -60.478008841064309       -235.54629281440702     
   7741.9495081017694       -53.074373868638126       -237.44109951004302     
   7745.6658308717242       -45.611863988527411       -239.10576450501230     
   7749.4658651992895       -38.097545266986330       -240.53843413530305     
   7753.3484865661858       -30.538544320954990       -241.73746991129988     
   7757.3125831159959       -22.942041673357938       -242.70144979757754     
   7761.3570300157662       -15.315265185291148       -243.42916928449014     
   7765.4806643992806       -7.6654835712682470       -243.91964227532790     
   7769.6822611933103        7.5859083345526490E-011  -244.17210181258318     
   7773.9605101139077        7.6738542210706369       -244.18600066608494     
   7778.3139941022073        15.348725880617167       -243.96101180444018     
   7782.7411694483098        23.017246028249126       -243.49702876940825     
   7787.2403478280576        30.672036077481657       -242.79416597056738     
   7791.8096804510260        38.305713861771324       -241.85275891496593     
   7796.4471444892979        45.910899658489889       -240.67336438344802     
   7801.1505319259222        53.480222197887826       -239.25676056207652     
   7805.9174409296775        61.006324675113838       -237.60394713360822     
   7810.7452698293928        68.481870783887800       -235.71614533039687     
   7815.6312137270033        75.899550790442774       -233.59479794647956     
   7820.5722637540903        83.252087665803856       -231.24156930302513     
   7825.5652089425594        90.532243293425338       -228.65834515786787     
   7830.6066406463551        97.732824767638533       -225.84723254658533     
   7835.6929594187304        104.84669079634055       -222.81055953959313     
   7840.8203842182738        111.86675821891319       -219.55087489705818     
   7845.9849637878797        118.78600864754176       -216.07094760117306     
   7851.1825900236072        125.59749523699612       -212.37376624349062     
   7856.4090131262674        132.29434958457543       -208.46253824367923     
   7861.6598583068635        138.86978875840953       -204.34068887520408     
   7866.9306437989280        145.31712244869686       -200.01186007313424     
   7872.2167999160138        151.62976023285574       -195.47990899948698     
   7877.5136888814322        157.80121894201011       -190.74890634227563     
   7882.8166251500597        163.82513011284067       -185.82313432568071     
   7888.1208959386213        169.69524750563949       -180.70708441052125     
   7893.4217816814389        175.40545466651875       -175.40545466639171     
   7898.7145761329612        180.94977250915994       -169.92314679943271     