 VARIABLES = "x_1", "x_2", "x_3"
 ZONE F = POINT , I =         201  , J =         101
   1.1951542832961433        0.0000000000000000        0.0000000000000000     
   1.1951542832961433        0.0000000000000000        0.0000000000000000     
   1.1951542832961433        0.0000000000000000        0.0000000000000000     
   1.1951542832961433        0.0000000000000000        0.0000000000000000     
   1.1951542832961433        0.0000000000000000        0.0000000000000000     
   1.1951542832961433        0.0000000000000000        0.0000000000000000     
   1.1951542832961433        0.0000000000000000        0.0000000000000000     
   1.1951542832961433        0.0000000000000000        0.0000000000000000     
   1.1951542832961433        0.0000000000000000        0.0000000000000000     
   1.1951542832961433        0.0000000000000000        0.0000000000000000     
   1.1951542832961433        0.0000000000000000        0.0000000000000000     
   1.1951542832961433        0.0000000000000000        0.0000000000000000     
   1.1951542832961433        0.0000000000000000        0.0000000000000000     
   1.1951542832961433        0.0000000000000000        0.0000000000000000     
   1.1951542832961433        0.0000000000000000        0.0000000000000000     
   1.1951542832961433        0.0000000000000000        0.0000000000000000     
   1.1951542832961433        0.0000000000000000        0.0000000000000000     
   1.1951542832961433        0.0000000000000000        0.0000000000000000     
   1.1951542832961433        0.0000000000000000        0.0000000000000000     
   1.1951542832961433        0.0000000000000000        0.0000000000000000     
   1.1951542832961433        0.0000000000000000        0.0000000000000000     
   1.1951542832961433        0.0000000000000000        0.0000000000000000     
   1.1951542832961433        0.0000000000000000        0.0000000000000000     
   1.1951542832961433        0.0000000000000000        0.0000000000000000     
   1.1951542832961433        0.0000000000000000        0.0000000000000000     
   1.1951542832961433        0.0000000000000000        0.0000000000000000     
   1.1951542832961433        0.0000000000000000        0.0000000000000000     
   1.1951542832961433        0.0000000000000000        0.0000000000000000     
   1.1951542832961433        0.0000000000000000        0.0000000000000000     
   1.1951542832961433        0.0000000000000000        0.0000000000000000     
   1.1951542832961433        0.0000000000000000        0.0000000000000000     
   1.1951542832961433        0.0000000000000000        0.0000000000000000     
   1.1951542832961433        0.0000000000000000        0.0000000000000000     
   1.1951542832961433        0.0000000000000000        0.0000000000000000     
   1.1951542832961433        0.0000000000000000        0.0000000000000000     
   1.1951542832961433        0.0000000000000000        0.0000000000000000     
   1.1951542832961433        0.0000000000000000        0.0000000000000000     
   1.1951542832961433        0.0000000000000000        0.0000000000000000     
   1.1951542832961433        0.0000000000000000        0.0000000000000000     
   1.1951542832961433        0.0000000000000000        0.0000000000000000     
   1.1951542832961433        0.0000000000000000        0.0000000000000000     
   1.1951542832961433        0.0000000000000000        0.0000000000000000     
   1.1951542832961433        0.0000000000000000        0.0000000000000000     
   1.1951542832961433        0.0000000000000000        0.0000000000000000     
   1.1951542832961433        0.0000000000000000        0.0000000000000000     
   1.1951542832961433        0.0000000000000000        0.0000000000000000     
   1.1951542832961433        0.0000000000000000        0.0000000000000000     
   1.1951542832961433        0.0000000000000000        0.0000000000000000     
   1.1951542832961433        0.0000000000000000        0.0000000000000000     
   1.1951542832961433        0.0000000000000000        0.0000000000000000     
   1.1951542832961433       -0.0000000000000000        0.0000000000000000     
   1.1951542832961433       -0.0000000000000000        0.0000000000000000     
   1.1951542832961433       -0.0000000000000000        0.0000000000000000     
   1.1951542832961433       -0.0000000000000000        0.0000000000000000     
   1.1951542832961433       -0.0000000000000000        0.0000000000000000     
   1.1951542832961433       -0.0000000000000000        0.0000000000000000     
   1.1951542832961433       -0.0000000000000000        0.0000000000000000     
   1.1951542832961433       -0.0000000000000000        0.0000000000000000     
   1.1951542832961433       -0.0000000000000000        0.0000000000000000     
   1.1951542832961433       -0.0000000000000000        0.0000000000000000     
   1.1951542832961433       -0.0000000000000000        0.0000000000000000     
   1.1951542832961433       -0.0000000000000000        0.0000000000000000     
   1.1951542832961433       -0.0000000000000000        0.0000000000000000     
   1.1951542832961433       -0.0000000000000000        0.0000000000000000     
   1.1951542832961433       -0.0000000000000000        0.0000000000000000     
   1.1951542832961433       -0.0000000000000000        0.0000000000000000     
   1.1951542832961433       -0.0000000000000000        0.0000000000000000     
   1.1951542832961433       -0.0000000000000000        0.0000000000000000     
   1.1951542832961433       -0.0000000000000000        0.0000000000000000     
   1.1951542832961433       -0.0000000000000000        0.0000000000000000     
   1.1951542832961433       -0.0000000000000000        0.0000000000000000     
   1.1951542832961433       -0.0000000000000000        0.0000000000000000     
   1.1951542832961433       -0.0000000000000000        0.0000000000000000     
   1.1951542832961433       -0.0000000000000000        0.0000000000000000     
   1.1951542832961433       -0.0000000000000000        0.0000000000000000     
   1.1951542832961433       -0.0000000000000000        0.0000000000000000     
   1.1951542832961433       -0.0000000000000000        0.0000000000000000     
   1.1951542832961433       -0.0000000000000000        0.0000000000000000     
   1.1951542832961433       -0.0000000000000000        0.0000000000000000     
   1.1951542832961433       -0.0000000000000000        0.0000000000000000     
   1.1951542832961433       -0.0000000000000000        0.0000000000000000     
   1.1951542832961433       -0.0000000000000000        0.0000000000000000     
   1.1951542832961433       -0.0000000000000000        0.0000000000000000     
   1.1951542832961433       -0.0000000000000000        0.0000000000000000     
   1.1951542832961433       -0.0000000000000000        0.0000000000000000     
   1.1951542832961433       -0.0000000000000000        0.0000000000000000     
   1.1951542832961433       -0.0000000000000000        0.0000000000000000     
   1.1951542832961433       -0.0000000000000000        0.0000000000000000     
   1.1951542832961433       -0.0000000000000000        0.0000000000000000     
   1.1951542832961433       -0.0000000000000000        0.0000000000000000     
   1.1951542832961433       -0.0000000000000000        0.0000000000000000     
   1.1951542832961433       -0.0000000000000000        0.0000000000000000     
   1.1951542832961433       -0.0000000000000000        0.0000000000000000     
   1.1951542832961433       -0.0000000000000000        0.0000000000000000     
   1.1951542832961433       -0.0000000000000000        0.0000000000000000     
   1.1951542832961433       -0.0000000000000000        0.0000000000000000     
   1.1951542832961433       -0.0000000000000000        0.0000000000000000     
   1.1951542832961433       -0.0000000000000000        0.0000000000000000     
   1.1951542832961433       -0.0000000000000000        0.0000000000000000     
   1.1951542832961433       -0.0000000000000000        0.0000000000000000     
   1.1951542832961433       -0.0000000000000000       -0.0000000000000000     
   1.1951542832961433       -0.0000000000000000       -0.0000000000000000     
   1.1951542832961433       -0.0000000000000000       -0.0000000000000000     
   1.1951542832961433       -0.0000000000000000       -0.0000000000000000     
   1.1951542832961433       -0.0000000000000000       -0.0000000000000000     
   1.1951542832961433       -0.0000000000000000       -0.0000000000000000     
   1.1951542832961433       -0.0000000000000000       -0.0000000000000000     
   1.1951542832961433       -0.0000000000000000       -0.0000000000000000     
   1.1951542832961433       -0.0000000000000000       -0.0000000000000000     
   1.1951542832961433       -0.0000000000000000       -0.0000000000000000     
   1.1951542832961433       -0.0000000000000000       -0.0000000000000000     
   1.1951542832961433       -0.0000000000000000       -0.0000000000000000     
   1.1951542832961433       -0.0000000000000000       -0.0000000000000000     
   1.1951542832961433       -0.0000000000000000       -0.0000000000000000     
   1.1951542832961433       -0.0000000000000000       -0.0000000000000000     
   1.1951542832961433       -0.0000000000000000       -0.0000000000000000     
   1.1951542832961433       -0.0000000000000000       -0.0000000000000000     
   1.1951542832961433       -0.0000000000000000       -0.0000000000000000     
   1.1951542832961433       -0.0000000000000000       -0.0000000000000000     
   1.1951542832961433       -0.0000000000000000       -0.0000000000000000     
   1.1951542832961433       -0.0000000000000000       -0.0000000000000000     
   1.1951542832961433       -0.0000000000000000       -0.0000000000000000     
   1.1951542832961433       -0.0000000000000000       -0.0000000000000000     
   1.1951542832961433       -0.0000000000000000       -0.0000000000000000     
   1.1951542832961433       -0.0000000000000000       -0.0000000000000000     
   1.1951542832961433       -0.0000000000000000       -0.0000000000000000     
   1.1951542832961433       -0.0000000000000000       -0.0000000000000000     
   1.1951542832961433       -0.0000000000000000       -0.0000000000000000     
   1.1951542832961433       -0.0000000000000000       -0.0000000000000000     
   1.1951542832961433       -0.0000000000000000       -0.0000000000000000     
   1.1951542832961433       -0.0000000000000000       -0.0000000000000000     
   1.1951542832961433       -0.0000000000000000       -0.0000000000000000     
   1.1951542832961433       -0.0000000000000000       -0.0000000000000000     
   1.1951542832961433       -0.0000000000000000       -0.0000000000000000     
   1.1951542832961433       -0.0000000000000000       -0.0000000000000000     
   1.1951542832961433       -0.0000000000000000       -0.0000000000000000     
   1.1951542832961433       -0.0000000000000000       -0.0000000000000000     
   1.1951542832961433       -0.0000000000000000       -0.0000000000000000     
   1.1951542832961433       -0.0000000000000000       -0.0000000000000000     
   1.1951542832961433       -0.0000000000000000       -0.0000000000000000     
   1.1951542832961433       -0.0000000000000000       -0.0000000000000000     
   1.1951542832961433       -0.0000000000000000       -0.0000000000000000     
   1.1951542832961433       -0.0000000000000000       -0.0000000000000000     
   1.1951542832961433       -0.0000000000000000       -0.0000000000000000     
   1.1951542832961433       -0.0000000000000000       -0.0000000000000000     
   1.1951542832961433       -0.0000000000000000       -0.0000000000000000     
   1.1951542832961433       -0.0000000000000000       -0.0000000000000000     
   1.1951542832961433       -0.0000000000000000       -0.0000000000000000     
   1.1951542832961433       -0.0000000000000000       -0.0000000000000000     
   1.1951542832961433       -0.0000000000000000       -0.0000000000000000     
   1.1951542832961433        0.0000000000000000       -0.0000000000000000     
   1.1951542832961433        0.0000000000000000       -0.0000000000000000     
   1.1951542832961433        0.0000000000000000       -0.0000000000000000     
   1.1951542832961433        0.0000000000000000       -0.0000000000000000     
   1.1951542832961433        0.0000000000000000       -0.0000000000000000     
   1.1951542832961433        0.0000000000000000       -0.0000000000000000     
   1.1951542832961433        0.0000000000000000       -0.0000000000000000     
   1.1951542832961433        0.0000000000000000       -0.0000000000000000     
   1.1951542832961433        0.0000000000000000       -0.0000000000000000     
   1.1951542832961433        0.0000000000000000       -0.0000000000000000     
   1.1951542832961433        0.0000000000000000       -0.0000000000000000     
   1.1951542832961433        0.0000000000000000       -0.0000000000000000     
   1.1951542832961433        0.0000000000000000       -0.0000000000000000     
   1.1951542832961433        0.0000000000000000       -0.0000000000000000     
   1.1951542832961433        0.0000000000000000       -0.0000000000000000     
   1.1951542832961433        0.0000000000000000       -0.0000000000000000     
   1.1951542832961433        0.0000000000000000       -0.0000000000000000     
   1.1951542832961433        0.0000000000000000       -0.0000000000000000     
   1.1951542832961433        0.0000000000000000       -0.0000000000000000     
   1.1951542832961433        0.0000000000000000       -0.0000000000000000     
   1.1951542832961433        0.0000000000000000       -0.0000000000000000     
   1.1951542832961433        0.0000000000000000       -0.0000000000000000     
   1.1951542832961433        0.0000000000000000       -0.0000000000000000     
   1.1951542832961433        0.0000000000000000       -0.0000000000000000     
   1.1951542832961433        0.0000000000000000       -0.0000000000000000     
   1.1951542832961433        0.0000000000000000       -0.0000000000000000     
   1.1951542832961433        0.0000000000000000       -0.0000000000000000     
   1.1951542832961433        0.0000000000000000       -0.0000000000000000     
   1.1951542832961433        0.0000000000000000       -0.0000000000000000     
   1.1951542832961433        0.0000000000000000       -0.0000000000000000     
   1.1951542832961433        0.0000000000000000       -0.0000000000000000     
   1.1951542832961433        0.0000000000000000       -0.0000000000000000     
   1.1951542832961433        0.0000000000000000       -0.0000000000000000     
   1.1951542832961433        0.0000000000000000       -0.0000000000000000     
   1.1951542832961433        0.0000000000000000       -0.0000000000000000     
   1.1951542832961433        0.0000000000000000       -0.0000000000000000     
   1.1951542832961433        0.0000000000000000       -0.0000000000000000     
   1.1951542832961433        0.0000000000000000       -0.0000000000000000     
   1.1951542832961433        0.0000000000000000       -0.0000000000000000     
   1.1951542832961433        0.0000000000000000       -0.0000000000000000     
   1.1951542832961433        0.0000000000000000       -0.0000000000000000     
   1.1951542832961433        0.0000000000000000       -0.0000000000000000     
   1.1951542832961433        0.0000000000000000       -0.0000000000000000     
   1.1951542832961433        0.0000000000000000       -0.0000000000000000     
   1.1951542832961433        0.0000000000000000       -0.0000000000000000     
   1.1951542832961433        0.0000000000000000       -0.0000000000000000     
   1.1951542832961433        0.0000000000000000       -0.0000000000000000     
   1.1951542832961433        0.0000000000000000       -0.0000000000000000     
   1.1951542832961433        0.0000000000000000       -0.0000000000000000     
   1.1951542832961433        0.0000000000000000       -0.0000000000000000     
   1.1951542832961433        0.0000000000000000        0.0000000000000000     
   1.1944844561941073        3.7538186305006112E-002   0.0000000000000000     
   1.1944828237702632        3.7519612200412576E-002   1.1791013148536071E-003
   1.1944809167437671        3.7464002256898520E-002   2.3570352359829094E-003
   1.1944787426635473        3.7371411747388006E-002   3.5326385005887656E-003
   1.1944763101361384        3.7241932512331301E-002   4.7047501864150350E-003
   1.1944736287912969        3.7075692864926103E-002   5.8722128640561182E-003
   1.1944707092435305        3.6872857459738714E-002   7.0338737453966189E-003
   1.1944675630496939        3.6633627124897171E-002   8.1885858269944226E-003
   1.1944642026628327        3.6358238658069697E-002   9.3352090272277987E-003
   1.1944606413824594        3.6046964586482044E-002   1.0472611316038060E-002
   1.1944568933014761        3.5700112891267254E-002   1.1599669836111836E-002
   1.1944529732499518        3.5318026696479494E-002   1.2715272014360870E-002
   1.1944488967359954        3.4901083923142347E-002   1.3818316662572916E-002
   1.1944446798839614        3.4449696908738385E-002   1.4907715066123893E-002
   1.1944403393702432        3.3964311992583068E-002   1.5982392059659706E-002
   1.1944358923569145        3.3445409067560938E-002   1.7041287088675340E-002
   1.1944313564234972        3.2893501098736101E-002   1.8083355255939584E-002
   1.1944267494971170        3.2309133609381126E-002   1.9107568351734772E-002
   1.1944220897813520        3.1692884135001133E-002   2.0112915866904151E-002
   1.1944173956840369        3.1045361645958933E-002   2.1098405987722106E-002
   1.1944126857443329        3.0367205939337349E-002   2.2063066571627484E-002
   1.1944079785593475        2.9659087000702227E-002   2.3005946102884700E-002
   1.1944032927105943        2.8921704336456456E-002   2.3926114627263139E-002
   1.1943986466905916        2.8155786277501121E-002   2.4822664664851720E-002
   1.1943940588298882        2.7362089254943888E-002   2.5694712100152044E-002
   1.1943895472248014        2.6541397048618038E-002   2.6541397048620782E-002
   1.1943851296661556        2.5694520009197568E-002   2.7361884698859532E-002
   1.1943808235692972        2.4822294254714466E-002   2.8155366129678377E-002
   1.1943766459056611        2.3925580842303947E-002   2.8921059101287117E-002
   1.1943726131361505        2.3005264916022054E-002   2.9658208819896836E-002
   1.1943687411465878        2.2062254831597568E-002   3.0366088675042650E-002
   1.1943650451854932        2.1097481258996818E-002   3.1044000948967330E-002
   1.1943615398044130        2.0111896263694990E-002   3.1691277497433522E-002
   1.1943582388010423        1.9106472367562775E-002   3.2307280401361695E-002
   1.1943551551653446        1.8082201590290427E-002   3.2891402588718720E-002
   1.1943523010288786        1.7040094472284269E-002   3.3443068426111326E-002
   1.1943496876175246        1.5981179079982710E-002   3.3961734279566724E-002
   1.1943473252077776        1.4906499994549962E-002   3.4446889044011102E-002
   1.1943452230867853        1.3817117284916341E-002   3.4898054640985630E-002
   1.1943433895162634        1.2714105466143596E-002   3.5314786484167242E-002
   1.1943418317004342        1.1598552444103134E-002   3.5696673912290068E-002
   1.1943405557580999        1.0471558447463373E-002   3.6043340589091616E-002
   1.1943395666989549        9.3342349479904260E-003   3.6354444869935408E-002
   1.1943388684042220        8.1877035701738571E-003   3.6629680134790434E-002
   1.1943384636116827        7.0330949911959857E-003   3.6868775087275173E-002
   1.1943383539051613        5.8715478322697405E-003   3.7071494019502403E-002
   1.1943385397084854        4.7042075423757287E-003   3.7237637042488392E-002
   1.1943390202839608        3.5322252754349717E-003   3.7367040281918666E-002
   1.1943397937353522        2.3567567619584111E-003   3.7459576039090128E-002
   1.1943408570153577        1.1789611762189794E-003   3.7515152916877265E-002
   1.1943422059375586       -3.8814198730110962E-015   3.7533715910599071E-002
   1.1943438351927813       -1.1789641160537879E-003   3.7515246463690567E-002
   1.1943457383698255       -2.3567684923443692E-003   3.7459762488112142E-002
   1.1943479079804717       -3.5322515605642050E-003   3.7367318349458133E-002
   1.1943503354886733       -4.7042540030780271E-003   3.7238004816754648E-002
   1.1943530113438285       -5.8716198904608888E-003   3.7071948976966231E-002
   1.1943559250180069       -7.0331978161004951E-003   3.6869314114259852E-002
   1.1943590650469820       -8.1878420268024187E-003   3.6630299554104032E-002
   1.1943624190749336       -9.3344135483327661E-003   3.6355140472311406E-002
   1.1943659739026322       -1.0471781304833254E-002   3.6044107669162294E-002
   1.1943697155389381       -1.1598823231044924E-002   3.5697507308777750E-002
   1.1943736292554188       -1.2714427376278483E-002   3.5315680623941310E-002
   1.1943776996438724       -1.3817492999071878E-002   3.4899003586599052E-002
   1.1943819106765479       -1.4906931651478959E-002   3.4447886544299700E-002
   1.1943862457688268       -1.5981668251937326E-002   3.3962773822867325E-002
   1.1943906878441333       -1.7040642145668517E-002   3.3444143295631744E-002
   1.1943952194008236       -1.8082808151569527E-002   3.2892505919573350E-002
   1.1943998225807930       -1.9107137594561601E-002   3.2308405238771605E-002
   1.1944044792395476       -2.0112619322370354E-002   3.1692416855579379E-002
   1.1944091710174638       -2.1098260705719955E-002   3.1045147869977682E-002
   1.1944138794119581       -2.2063088620934514E-002   3.0367236287598305E-002
   1.1944185858502929       -2.3006150413950790E-002   2.9659350396935170E-002
   1.1944232717627286       -2.3926514844759182E-002   2.8922188116298098E-002
   1.1944279186557432       -2.4823273011303333E-002   2.8156476311095805E-002
   1.1944325081850204       -2.5695539251883621E-002   2.7362970082067870E-002
   1.1944370222279275       -2.6542452025126614E-002   2.6542452025118367E-002
   1.1944414429551948       -2.7363174766599503E-002   2.5695731463436802E-002
   1.1944457529015045       -2.8156896721168004E-002   2.4823643652623847E-002
   1.1944499350347133       -2.8922833750216349E-002   2.3927048959572011E-002
   1.1944539728234318       -2.9660229112870078E-002   2.3006832015882790E-002
   1.1944578503026801       -3.0368354220384853E-002   2.2063900846633004E-002
   1.1944615521373627       -3.1046509362889937E-002   2.1099185975333591E-002
   1.1944650636833030       -3.1694024407700361E-002   2.0113639505954347E-002
   1.1944683710455837       -3.2310259468439226E-002   1.9108234182916621E-002
   1.1944714611339564       -3.2894605544240590E-002   1.8083962429984911E-002
   1.1944743217150997       -3.3446485128333342E-002   1.7041835369015372E-002
   1.1944769414614977       -3.3965352785337563E-002   1.5982881819545536E-002
   1.1944793099967475       -3.4450695696638035E-002   1.4908147280235026E-002
   1.1944814179370984       -3.4902034173232996E-002   1.3818692893190801E-002
   1.1944832569290604       -3.5318922135491607E-002   1.2715594392233709E-002
   1.1944848196829114       -3.5700947559289473E-002   1.1599941036183895E-002
   1.1944861000019735       -3.6047732888029073E-002   1.0472834528263447E-002
   1.1944870928075295       -3.6358935410089763E-002   9.3353879227325264E-003
   1.1944877941592731       -3.6634247601291504E-002   8.1887245198926061E-003
   1.1944882012712115       -3.6873397431995976E-002   7.0339767506056965E-003
   1.1944883125229424       -3.7076148638509492E-002   5.8722850514921704E-003
   1.1944881274662693       -3.7242300958493561E-002   4.7047967319818725E-003
   1.1944876468271106       -3.7371690330130242E-002   3.5326648344033910E-003
   1.1944868725027076       -3.7464189054832106E-002   2.3570469883049637E-003
   1.1944858075541283       -3.7519705923328955E-002   1.1791042602071426E-003
   1.1944844561941073       -3.7538186305006112E-002  -7.7637643268834636E-015
   1.1944828237702632       -3.7519612200412333E-002  -1.1791013148613658E-003
   1.1944809167437671       -3.7464002256898027E-002  -2.3570352359906549E-003
   1.1944787426635473       -3.7371411747387277E-002  -3.5326385005964920E-003
   1.1944763101361384       -3.7241932512330329E-002  -4.7047501864227338E-003
   1.1944736287912967       -3.7075692864924882E-002  -5.8722128640637961E-003
   1.1944707092435303       -3.6872857459737250E-002  -7.0338737454042535E-003
   1.1944675630496941       -3.6633627124895478E-002  -8.1885858270020102E-003
   1.1944642026628325       -3.6358238658067754E-002  -9.3352090272353257E-003
   1.1944606413824597       -3.6046964586479879E-002  -1.0472611316045525E-002
   1.1944568933014756       -3.5700112891264839E-002  -1.1599669836119221E-002
   1.1944529732499516       -3.5318026696476858E-002  -1.2715272014368176E-002
   1.1944488967359952       -3.4901083923139481E-002  -1.3818316662580134E-002
   1.1944446798839616       -3.4449696908735304E-002  -1.4907715066131024E-002
   1.1944403393702432       -3.3964311992579765E-002  -1.5982392059666731E-002
   1.1944358923569143       -3.3445409067557406E-002  -1.7041287088682255E-002
   1.1944313564234970       -3.2893501098732354E-002  -1.8083355255946384E-002
   1.1944267494971168       -3.2309133609377164E-002  -1.9107568351741454E-002
   1.1944220897813520       -3.1692884134996969E-002  -2.0112915866910705E-002
   1.1944173956840367       -3.1045361645954568E-002  -2.1098405987728518E-002
   1.1944126857443329       -3.0367205939332776E-002  -2.2063066571633774E-002
   1.1944079785593473       -2.9659087000697453E-002  -2.3005946102890841E-002
   1.1944032927105943       -2.8921704336451502E-002  -2.3926114627269124E-002
   1.1943986466905916       -2.8155786277495983E-002  -2.4822664664857549E-002
   1.1943940588298882       -2.7362089254938566E-002  -2.5694712100157710E-002
   1.1943895472248014       -2.6541397048612539E-002  -2.6541397048626271E-002
   1.1943851296661552       -2.5694520009191892E-002  -2.7361884698864841E-002
   1.1943808235692972       -2.4822294254708645E-002  -2.8155366129683519E-002
   1.1943766459056611       -2.3925580842297966E-002  -2.8921059101292064E-002
   1.1943726131361503       -2.3005264916015893E-002  -2.9658208819901596E-002
   1.1943687411465875       -2.2062254831591278E-002  -3.0366088675047209E-002
   1.1943650451854932       -2.1097481258990386E-002  -3.1044000948971702E-002
   1.1943615398044127       -2.0111896263688433E-002  -3.1691277497437678E-002
   1.1943582388010423       -1.9106472367556075E-002  -3.2307280401365650E-002
   1.1943551551653444       -1.8082201590283623E-002  -3.2891402588722453E-002
   1.1943523010288788       -1.7040094472277337E-002  -3.3443068426114865E-002
   1.1943496876175246       -1.5981179079975687E-002  -3.3961734279570027E-002
   1.1943473252077776       -1.4906499994542827E-002  -3.4446889044014189E-002
   1.1943452230867853       -1.3817117284909130E-002  -3.4898054640988482E-002
   1.1943433895162634       -1.2714105466136282E-002  -3.5314786484169872E-002
   1.1943418317004340       -1.1598552444095757E-002  -3.5696673912292462E-002
   1.1943405557580999       -1.0471558447455908E-002  -3.6043340589093788E-002
   1.1943395666989547       -9.3342349479829129E-003  -3.6354444869937330E-002
   1.1943388684042220       -8.1877035701662729E-003  -3.6629680134792127E-002
   1.1943384636116827       -7.0330949911883755E-003  -3.6868775087276623E-002
   1.1943383539051613       -5.8715478322620739E-003  -3.7071494019503617E-002
   1.1943385397084854       -4.7042075423680109E-003  -3.7237637042489363E-002
   1.1943390202839610       -3.5322252754272439E-003  -3.7367040281919409E-002
   1.1943397937353522       -2.3567567619506469E-003  -3.7459576039090607E-002
   1.1943408570153577       -1.1789611762112199E-003  -3.7515152916877514E-002
   1.1943422059375586        1.1660927937274763E-014  -3.7533715910599071E-002
   1.1943438351927813        1.1789641160615471E-003  -3.7515246463690317E-002
   1.1943457383698255        2.3567684923521339E-003  -3.7459762488111656E-002
   1.1943479079804717        3.5322515605719254E-003  -3.7367318349457411E-002
   1.1943503354886733        4.7042540030857363E-003  -3.7238004816753677E-002
   1.1943530113438285        5.8716198904685477E-003  -3.7071948976965016E-002
   1.1943559250180067        7.0331978161081270E-003  -3.6869314114258395E-002
   1.1943590650469822        8.1878420268099890E-003  -3.6630299554102352E-002
   1.1943624190749340        9.3344135483402983E-003  -3.6355140472309491E-002
   1.1943659739026322        1.0471781304840704E-002  -3.6044107669160136E-002
   1.1943697155389381        1.1598823231052309E-002  -3.5697507308775349E-002
   1.1943736292554186        1.2714427376285800E-002  -3.5315680623938667E-002
   1.1943776996438724        1.3817492999079094E-002  -3.4899003586596193E-002
   1.1943819106765476        1.4906931651486096E-002  -3.4447886544296598E-002
   1.1943862457688266        1.5981668251944348E-002  -3.3962773822864008E-002
   1.1943906878441335        1.7040642145675453E-002  -3.3444143295628219E-002
   1.1943952194008236        1.8082808151576330E-002  -3.2892505919569610E-002
   1.1943998225807926        1.9107137594568290E-002  -3.2308405238767629E-002
   1.1944044792395474        2.0112619322376905E-002  -3.1692416855575216E-002
   1.1944091710174636        2.1098260705726391E-002  -3.1045147869973307E-002
   1.1944138794119581        2.2063088620940793E-002  -3.0367236287593739E-002
   1.1944185858502929        2.3006150413956934E-002  -2.9659350396930399E-002
   1.1944232717627286        2.3926514844765163E-002  -2.8922188116293147E-002
   1.1944279186557432        2.4823273011309158E-002  -2.8156476311090674E-002
   1.1944325081850202        2.5695539251889266E-002  -2.7362970082062562E-002
   1.1944370222279275        2.6542452025132106E-002  -2.6542452025112878E-002
   1.1944414429551948        2.7363174766604832E-002  -2.5695731463431130E-002