 VARIABLES = "x_1", "x_2", "x_3"
 ZONE F = POINT , I =         201  , J =         101
   2584.7184458937941        0.0000000000000000        0.0000000000000000     
   2584.7184458937941        0.0000000000000000        0.0000000000000000     
   2584.7184458937941        0.0000000000000000        0.0000000000000000     
   2584.7184458937941        0.0000000000000000        0.0000000000000000     
   2584.7184458937941        0.0000000000000000        0.0000000000000000     
   2584.7184458937941        0.0000000000000000        0.0000000000000000     
   2584.7184458937941        0.0000000000000000        0.0000000000000000     
   2584.7184458937941        0.0000000000000000        0.0000000000000000     
   2584.7184458937941        0.0000000000000000        0.0000000000000000     
   2584.7184458937941        0.0000000000000000        0.0000000000000000     
   2584.7184458937941        0.0000000000000000        0.0000000000000000     
   2584.7184458937941        0.0000000000000000        0.0000000000000000     
   2584.7184458937941        0.0000000000000000        0.0000000000000000     
   2584.7184458937941        0.0000000000000000        0.0000000000000000     
   2584.7184458937941        0.0000000000000000        0.0000000000000000     
   2584.7184458937941        0.0000000000000000        0.0000000000000000     
   2584.7184458937941        0.0000000000000000        0.0000000000000000     
   2584.7184458937941        0.0000000000000000        0.0000000000000000     
   2584.7184458937941        0.0000000000000000        0.0000000000000000     
   2584.7184458937941        0.0000000000000000        0.0000000000000000     
   2584.7184458937941        0.0000000000000000        0.0000000000000000     
   2584.7184458937941        0.0000000000000000        0.0000000000000000     
   2584.7184458937941        0.0000000000000000        0.0000000000000000     
   2584.7184458937941        0.0000000000000000        0.0000000000000000     
   2584.7184458937941        0.0000000000000000        0.0000000000000000     
   2584.7184458937941        0.0000000000000000        0.0000000000000000     
   2584.7184458937941        0.0000000000000000        0.0000000000000000     
   2584.7184458937941        0.0000000000000000        0.0000000000000000     
   2584.7184458937941        0.0000000000000000        0.0000000000000000     
   2584.7184458937941        0.0000000000000000        0.0000000000000000     
   2584.7184458937941        0.0000000000000000        0.0000000000000000     
   2584.7184458937941        0.0000000000000000        0.0000000000000000     
   2584.7184458937941        0.0000000000000000        0.0000000000000000     
   2584.7184458937941        0.0000000000000000        0.0000000000000000     
   2584.7184458937941        0.0000000000000000        0.0000000000000000     
   2584.7184458937941        0.0000000000000000        0.0000000000000000     
   2584.7184458937941        0.0000000000000000        0.0000000000000000     
   2584.7184458937941        0.0000000000000000        0.0000000000000000     
   2584.7184458937941        0.0000000000000000        0.0000000000000000     
   2584.7184458937941        0.0000000000000000        0.0000000000000000     
   2584.7184458937941        0.0000000000000000        0.0000000000000000     
   2584.7184458937941        0.0000000000000000        0.0000000000000000     
   2584.7184458937941        0.0000000000000000        0.0000000000000000     
   2584.7184458937941        0.0000000000000000        0.0000000000000000     
   2584.7184458937941        0.0000000000000000        0.0000000000000000     
   2584.7184458937941        0.0000000000000000        0.0000000000000000     
   2584.7184458937941        0.0000000000000000        0.0000000000000000     
   2584.7184458937941        0.0000000000000000        0.0000000000000000     
   2584.7184458937941        0.0000000000000000        0.0000000000000000     
   2584.7184458937941        0.0000000000000000        0.0000000000000000     
   2584.7184458937941       -0.0000000000000000        0.0000000000000000     
   2584.7184458937941       -0.0000000000000000        0.0000000000000000     
   2584.7184458937941       -0.0000000000000000        0.0000000000000000     
   2584.7184458937941       -0.0000000000000000        0.0000000000000000     
   2584.7184458937941       -0.0000000000000000        0.0000000000000000     
   2584.7184458937941       -0.0000000000000000        0.0000000000000000     
   2584.7184458937941       -0.0000000000000000        0.0000000000000000     
   2584.7184458937941       -0.0000000000000000        0.0000000000000000     
   2584.7184458937941       -0.0000000000000000        0.0000000000000000     
   2584.7184458937941       -0.0000000000000000        0.0000000000000000     
   2584.7184458937941       -0.0000000000000000        0.0000000000000000     
   2584.7184458937941       -0.0000000000000000        0.0000000000000000     
   2584.7184458937941       -0.0000000000000000        0.0000000000000000     
   2584.7184458937941       -0.0000000000000000        0.0000000000000000     
   2584.7184458937941       -0.0000000000000000        0.0000000000000000     
   2584.7184458937941       -0.0000000000000000        0.0000000000000000     
   2584.7184458937941       -0.0000000000000000        0.0000000000000000     
   2584.7184458937941       -0.0000000000000000        0.0000000000000000     
   2584.7184458937941       -0.0000000000000000        0.0000000000000000     
   2584.7184458937941       -0.0000000000000000        0.0000000000000000     
   2584.7184458937941       -0.0000000000000000        0.0000000000000000     
   2584.7184458937941       -0.0000000000000000        0.0000000000000000     
   2584.7184458937941       -0.0000000000000000        0.0000000000000000     
   2584.7184458937941       -0.0000000000000000        0.0000000000000000     
   2584.7184458937941       -0.0000000000000000        0.0000000000000000     
   2584.7184458937941       -0.0000000000000000        0.0000000000000000     
   2584.7184458937941       -0.0000000000000000        0.0000000000000000     
   2584.7184458937941       -0.0000000000000000        0.0000000000000000     
   2584.7184458937941       -0.0000000000000000        0.0000000000000000     
   2584.7184458937941       -0.0000000000000000        0.0000000000000000     
   2584.7184458937941       -0.0000000000000000        0.0000000000000000     
   2584.7184458937941       -0.0000000000000000        0.0000000000000000     
   2584.7184458937941       -0.0000000000000000        0.0000000000000000     
   2584.7184458937941       -0.0000000000000000        0.0000000000000000     
   2584.7184458937941       -0.0000000000000000        0.0000000000000000     
   2584.7184458937941       -0.0000000000000000        0.0000000000000000     
   2584.7184458937941       -0.0000000000000000        0.0000000000000000     
   2584.7184458937941       -0.0000000000000000        0.0000000000000000     
   2584.7184458937941       -0.0000000000000000        0.0000000000000000     
   2584.7184458937941       -0.0000000000000000        0.0000000000000000     
   2584.7184458937941       -0.0000000000000000        0.0000000000000000     
   2584.7184458937941       -0.0000000000000000        0.0000000000000000     
   2584.7184458937941       -0.0000000000000000        0.0000000000000000     
   2584.7184458937941       -0.0000000000000000        0.0000000000000000     
   2584.7184458937941       -0.0000000000000000        0.0000000000000000     
   2584.7184458937941       -0.0000000000000000        0.0000000000000000     
   2584.7184458937941       -0.0000000000000000        0.0000000000000000     
   2584.7184458937941       -0.0000000000000000        0.0000000000000000     
   2584.7184458937941       -0.0000000000000000        0.0000000000000000     
   2584.7184458937941       -0.0000000000000000        0.0000000000000000     
   2584.7184458937941       -0.0000000000000000       -0.0000000000000000     
   2584.7184458937941       -0.0000000000000000       -0.0000000000000000     
   2584.7184458937941       -0.0000000000000000       -0.0000000000000000     
   2584.7184458937941       -0.0000000000000000       -0.0000000000000000     
   2584.7184458937941       -0.0000000000000000       -0.0000000000000000     
   2584.7184458937941       -0.0000000000000000       -0.0000000000000000     
   2584.7184458937941       -0.0000000000000000       -0.0000000000000000     
   2584.7184458937941       -0.0000000000000000       -0.0000000000000000     
   2584.7184458937941       -0.0000000000000000       -0.0000000000000000     
   2584.7184458937941       -0.0000000000000000       -0.0000000000000000     
   2584.7184458937941       -0.0000000000000000       -0.0000000000000000     
   2584.7184458937941       -0.0000000000000000       -0.0000000000000000     
   2584.7184458937941       -0.0000000000000000       -0.0000000000000000     
   2584.7184458937941       -0.0000000000000000       -0.0000000000000000     
   2584.7184458937941       -0.0000000000000000       -0.0000000000000000     
   2584.7184458937941       -0.0000000000000000       -0.0000000000000000     
   2584.7184458937941       -0.0000000000000000       -0.0000000000000000     
   2584.7184458937941       -0.0000000000000000       -0.0000000000000000     
   2584.7184458937941       -0.0000000000000000       -0.0000000000000000     
   2584.7184458937941       -0.0000000000000000       -0.0000000000000000     
   2584.7184458937941       -0.0000000000000000       -0.0000000000000000     
   2584.7184458937941       -0.0000000000000000       -0.0000000000000000     
   2584.7184458937941       -0.0000000000000000       -0.0000000000000000     
   2584.7184458937941       -0.0000000000000000       -0.0000000000000000     
   2584.7184458937941       -0.0000000000000000       -0.0000000000000000     
   2584.7184458937941       -0.0000000000000000       -0.0000000000000000     
   2584.7184458937941       -0.0000000000000000       -0.0000000000000000     
   2584.7184458937941       -0.0000000000000000       -0.0000000000000000     
   2584.7184458937941       -0.0000000000000000       -0.0000000000000000     
   2584.7184458937941       -0.0000000000000000       -0.0000000000000000     
   2584.7184458937941       -0.0000000000000000       -0.0000000000000000     
   2584.7184458937941       -0.0000000000000000       -0.0000000000000000     
   2584.7184458937941       -0.0000000000000000       -0.0000000000000000     
   2584.7184458937941       -0.0000000000000000       -0.0000000000000000     
   2584.7184458937941       -0.0000000000000000       -0.0000000000000000     
   2584.7184458937941       -0.0000000000000000       -0.0000000000000000     
   2584.7184458937941       -0.0000000000000000       -0.0000000000000000     
   2584.7184458937941       -0.0000000000000000       -0.0000000000000000     
   2584.7184458937941       -0.0000000000000000       -0.0000000000000000     
   2584.7184458937941       -0.0000000000000000       -0.0000000000000000     
   2584.7184458937941       -0.0000000000000000       -0.0000000000000000     
   2584.7184458937941       -0.0000000000000000       -0.0000000000000000     
   2584.7184458937941       -0.0000000000000000       -0.0000000000000000     
   2584.7184458937941       -0.0000000000000000       -0.0000000000000000     
   2584.7184458937941       -0.0000000000000000       -0.0000000000000000     
   2584.7184458937941       -0.0000000000000000       -0.0000000000000000     
   2584.7184458937941       -0.0000000000000000       -0.0000000000000000     
   2584.7184458937941       -0.0000000000000000       -0.0000000000000000     
   2584.7184458937941       -0.0000000000000000       -0.0000000000000000     
   2584.7184458937941       -0.0000000000000000       -0.0000000000000000     
   2584.7184458937941        0.0000000000000000       -0.0000000000000000     
   2584.7184458937941        0.0000000000000000       -0.0000000000000000     
   2584.7184458937941        0.0000000000000000       -0.0000000000000000     
   2584.7184458937941        0.0000000000000000       -0.0000000000000000     
   2584.7184458937941        0.0000000000000000       -0.0000000000000000     
   2584.7184458937941        0.0000000000000000       -0.0000000000000000     
   2584.7184458937941        0.0000000000000000       -0.0000000000000000     
   2584.7184458937941        0.0000000000000000       -0.0000000000000000     
   2584.7184458937941        0.0000000000000000       -0.0000000000000000     
   2584.7184458937941        0.0000000000000000       -0.0000000000000000     
   2584.7184458937941        0.0000000000000000       -0.0000000000000000     
   2584.7184458937941        0.0000000000000000       -0.0000000000000000     
   2584.7184458937941        0.0000000000000000       -0.0000000000000000     
   2584.7184458937941        0.0000000000000000       -0.0000000000000000     
   2584.7184458937941        0.0000000000000000       -0.0000000000000000     
   2584.7184458937941        0.0000000000000000       -0.0000000000000000     
   2584.7184458937941        0.0000000000000000       -0.0000000000000000     
   2584.7184458937941        0.0000000000000000       -0.0000000000000000     
   2584.7184458937941        0.0000000000000000       -0.0000000000000000     
   2584.7184458937941        0.0000000000000000       -0.0000000000000000     
   2584.7184458937941        0.0000000000000000       -0.0000000000000000     
   2584.7184458937941        0.0000000000000000       -0.0000000000000000     
   2584.7184458937941        0.0000000000000000       -0.0000000000000000     
   2584.7184458937941        0.0000000000000000       -0.0000000000000000     
   2584.7184458937941        0.0000000000000000       -0.0000000000000000     
   2584.7184458937941        0.0000000000000000       -0.0000000000000000     
   2584.7184458937941        0.0000000000000000       -0.0000000000000000     
   2584.7184458937941        0.0000000000000000       -0.0000000000000000     
   2584.7184458937941        0.0000000000000000       -0.0000000000000000     
   2584.7184458937941        0.0000000000000000       -0.0000000000000000     
   2584.7184458937941        0.0000000000000000       -0.0000000000000000     
   2584.7184458937941        0.0000000000000000       -0.0000000000000000     
   2584.7184458937941        0.0000000000000000       -0.0000000000000000     
   2584.7184458937941        0.0000000000000000       -0.0000000000000000     
   2584.7184458937941        0.0000000000000000       -0.0000000000000000     
   2584.7184458937941        0.0000000000000000       -0.0000000000000000     
   2584.7184458937941        0.0000000000000000       -0.0000000000000000     
   2584.7184458937941        0.0000000000000000       -0.0000000000000000     
   2584.7184458937941        0.0000000000000000       -0.0000000000000000     
   2584.7184458937941        0.0000000000000000       -0.0000000000000000     
   2584.7184458937941        0.0000000000000000       -0.0000000000000000     
   2584.7184458937941        0.0000000000000000       -0.0000000000000000     
   2584.7184458937941        0.0000000000000000       -0.0000000000000000     
   2584.7184458937941        0.0000000000000000       -0.0000000000000000     
   2584.7184458937941        0.0000000000000000       -0.0000000000000000     
   2584.7184458937941        0.0000000000000000       -0.0000000000000000     
   2584.7184458937941        0.0000000000000000       -0.0000000000000000     
   2584.7184458937941        0.0000000000000000       -0.0000000000000000     
   2584.7184458937941        0.0000000000000000       -0.0000000000000000     
   2584.7184458937941        0.0000000000000000       -0.0000000000000000     
   2584.7184458937941        0.0000000000000000        0.0000000000000000     
   2538.1560778689795        79.764768162664495        0.0000000000000000     
   2535.4657199651265        79.640902880682930        2.5028162018611977     
   2532.8244654510058        79.440148569857357        4.9979505138534055     
   2530.2337498358465        79.162905043750570        7.4830977236376848     
   2527.6949839476233        78.809638336993658        9.9559726266756510     
   2525.2095565995314        78.380879814650797        12.414311781589040     
   2522.7788371403494        77.877225238309322        14.855875234681758     
   2520.4041778741807        77.299333788969903        17.278448212142379     
   2518.0869163357415        76.647927046952972        19.679842778308043     
   2515.8283774082797        75.923787929203996        22.057899458253786     
   2513.6298752719640        75.127759584557836        24.410488822875067     
   2511.4927151715401        74.260744247719018        26.735513034559037     
   2509.4181949929421        73.323702052919927        29.030907351492086     
   2507.4076066395355        72.317649808435462        31.294641588629492     
   2505.4622371996038        71.243659733351507        33.524721533357301     
   2503.5833698977708        70.102858158211603        35.719190313909692     
   2501.7722848240160        68.896424191386387        37.876129718664153     
   2500.0302594350305        67.625588353232970        39.993661464524465     
   2498.3585688237004        66.291631180323648        42.069948412716201     
   2496.7584857535549        64.895881802227720        44.103195730459504     
   2495.2312804561279        63.439716493522845        46.091651997151487     
   2493.7782201901764        61.924557203886529        48.033610253878805     
   2492.4005685628185        60.351870069279840        49.927408995295778     
   2491.0995846136443        58.723163907370896        51.771433103134136     
   2489.8765216638972        57.039988700462857        53.564114720863422     
   2488.7326259338274        55.303934069281574        55.303934069287301     
   2487.6691349322664        53.516627741042420        56.989420203141606     
   2486.6872756234425        51.679734015252372        58.619151709051486     
   2485.7882623769387        49.794952230711402        60.191757345502943     
   2484.9732947075563        47.864015237153431        61.705916625787914     
   2484.2435548127160        45.888687874915860        63.160360345187200     
   2483.6002049157323        43.870765465940600        64.553871053958346     
   2483.0443844240976        41.812072319296000        65.885283477994776     
   2482.5772069125610        39.714460254263393        67.153484889313972     
   2482.1997569414089        37.579807143856492        68.357415428811123     
   2481.9130867209719        35.410015481438272        69.496068383983200     
   2481.7182126338657        33.207010972867842        70.568490424575998     
   2481.6161116269805        30.972741156352683        71.573781799338335     
   2481.6077174856528        28.709174051899119        72.511096497275517     
   2481.6939170028108        26.418296841949488        73.379642376977813     
   2481.8755460562325        24.102114584470559        74.178681267757511     
   2482.1533856073083        21.762648959414893        74.907529046456659     
   2482.5281576349744        19.401937049120235        75.565555693887191     
   2483.0005210185986        17.022030152841722        76.152185334930309     
   2483.5710673838507        14.624992635233227        76.666896266358719     
   2484.2403169256090        12.212900808207579        77.109220976443169     
   2485.0087142220791        9.7878418452160254        77.478746160371514     
   2485.8766240543737        7.3519127265976483        77.775112735439805     
   2486.8443272457480        4.9072192142607420        77.998015859868474     
   2487.9120165347645        2.4558748535766135        78.147204958959222     
   2489.0797924965777       -8.0891085687812057E-012   78.222483762131873     
   2490.3476595265338       -2.4582791324965556        78.223710354173519     
   2491.7155219001615       -4.9168314042088017        78.150797243787949     
   2493.1831799236406       -7.3735216675254547        78.003711452261626     
   2494.7503261886905       -9.8262116733542459        77.782474624754428     
   2496.4165419457549       -12.272760970453616        77.487163166389180     
   2498.1812936092738       -14.711027802010488        77.117908404950285     
   2500.0439294087328       -17.138870004105392        76.674896781613029     
   2502.0036761990527       -19.554145910903419        76.158370070709083     
   2504.0596364438102       -21.954715271583524        75.568625629100552     
   2506.2107853846373       -24.338440184158362        74.906016675277144     
   2508.4559684100500       -26.703186051440692        74.170952597819024     
   2510.7938986368217       -29.046822564479431        73.363899292379941     
   2513.2231547168899       -31.367224718815088        72.485379525845772     
   2515.7421788826450       -33.662273868892342        71.535973325814666     
   2518.3492752432730       -35.929858825912540        70.516318393029465     
   2521.0426083446973       -38.167877004312594        69.427110533876458     
   2523.8202020054241       -40.374235621916249        68.269104109544514     
   2526.6799384403857       -42.546852958619588        67.043112497924852     
   2529.6195576846799       -44.683659678245263        65.750008563824224     
   2532.6366573287482       -46.782600217925847        64.390725132564327     
   2535.7286925762610       -48.841634249060640        62.966255461557360     
   2538.8929766356123       -50.858738213528490        61.477653703979485     
   2542.1266814554838       -52.831906938434308        59.926035358217263     
   2545.4268388144892       -54.759155332219237        58.312577696340171     
   2548.7903417743628       -56.638520164475125        56.638520164457525     
   2552.2139465055443       -58.468061931273361        54.905164747456574     
   2555.6942744933572       -60.245866807250302        53.113876290291117     
   2559.2278151322057       -61.970048685085352        51.266082767702763     
   2562.8109287143466       -63.638751302367218        49.363275494011461     
   2566.4398498189380       -65.250150455173369        47.407009264415308     
   2570.1106911059487       -66.802456296984445        45.398902419088877     
   2573.8194475184746       -68.293915720830896        43.340636821276703     
   2577.5620008957376       -69.722814821818702        41.233957740538031     
   2581.3341249977707       -71.087481436416226        39.080673632320924     
   2585.1314909413268       -72.386287754102227        36.882655805125985     
   2588.9496730450865       -73.617652996188170        34.641837966668248     
   2592.7841550805902       -74.780046155834540        32.360215640659725     
   2596.6303369236321       -75.871988792490839        30.039845446117926     
   2600.4835415990447       -76.892057873205317        27.682844231458887     
   2604.3390227099421       -77.838888652482538        25.291388056055606     
   2608.1919722405178       -78.711177581616539        22.867711012438658     
   2612.0375287194720       -79.507685237704493        20.414103882879701     
   2615.8707857290783       -80.227239261857179        17.932912624734790     
   2619.6868007427674       -80.868737295471689        15.426536679628024     
   2623.4806042719397       -81.431149902829119        12.897427102326596     
   2627.2472093005822       -81.913523467731238        10.348084505992651     
   2630.9816209840615       -82.314983051400120        7.7810568213915454     
   2634.6788465863419       -82.634735198443110        5.1989368685866877     
   2638.3339056277437       -82.872070677336310        2.6043597406523831     
   2641.9418402133110       -83.026367141609683       -1.7171771224301127E-011
   2645.4977255098947       -83.097091697732608       -2.6114313111390643     
   2648.9966803381267       -83.083803365601838       -5.2271898429320975     
   2652.4338778437605       -82.986155417534476       -7.8445012895441906     
   2655.8045562111902       -82.803897581764318       -10.460564914437571     
   2659.1040293805167       -82.536878096638119       -13.072557243488907     
   2662.3276977282480       -82.185045602009481       -15.677635918400155     
   2665.4710586706465       -81.748450854733207       -18.272943701867977     
   2668.5297171478951       -81.227248255673672       -20.855612624831913     
   2671.4993959466296       -80.621697176253790       -23.422768265029166     
   2674.3759458180029       -79.932163073287470       -25.971534145031814     
   2677.1553553484164       -79.159118381653869       -28.499036236945457     
   2679.8337605401694       -78.303143175280880       -31.002407560012831     
   2682.4074540598081       -77.364925587905844       -33.478792856504988     
   2684.8728941127060       -76.345261986164545       -35.925353330502539     
   2687.2267129034676       -75.245056888719219       -38.339271433481073     
   2689.4657246431498       -74.065322626364491       -40.717755680025462     
   2691.5869330659175       -72.807178739335782       -43.058045476513591     
   2693.5875384197607       -71.471851109381575       -45.357415945240142     
   2695.4649438980514       -70.060670825531290       -47.613182726195816     
   2697.2167614813402       -68.575072783894115       -49.822706738588082     
   2698.8408171614215       -67.016594023234546       -51.983398884179884     
   2700.3351555227946       -65.386871799489739       -54.092724674644479     
   2701.6980436597582       -63.687641403798970       -56.148208765377625     
   2702.9279744108471       -61.920733730000372       -58.147439378581772     
   2704.0236688957912       -60.088072598898357       -60.088072598929450     
   2704.9840783439231       -58.191671847907564       -61.967836525727051     
   2705.8083852066884       -56.233632195922162       -63.784535266227806     
   2706.4960035508025       -54.216137894432478       -65.536052755577870     
   2707.0465787324615       -52.141453177004216       -67.220356389815748     
   2707.4599863569297       -50.011918520238716       -68.835500459372952     
   2707.7363305316403       -47.829946730236529       -70.379629371633570     
   2707.8759414248202       -45.598018869388596       -71.850980652292620     
   2707.8793721452689       -43.318680039002317       -73.247887716496436     
   2707.7473949625546       -40.994535033844286       -74.568782402038806     
   2707.4809968902941       -38.628243885127070       -75.812197258217878     
   2707.0813746584140       -36.222517308797670       -76.976767585310370     
   2706.5499291033243       -33.780112076183407       -78.061233220987290     
   2705.8882590077392       -31.303826324134587       -79.064440071360877     
   2705.0981544243987       -28.796494821755022       -79.985341385706036     
   2704.1815895202608       -26.260984210654254       -80.822998775229436     
   2703.1407149796823       -23.700188235373442       -81.576582977554466     
   2701.9778500068396       -21.117022980254955       -82.245374369837833     
   2700.6954739690241       -18.514422128531226       -82.828763234627431     
   2699.2962177235345       -15.895332258827386       -83.326249783698245     
   2697.7828546716878       -13.262708193593818       -83.737443946158677     
   2696.1582915839504       -10.619508413236844       -84.062064928095396     
   2694.4255592403565       -7.9686905488888540       -84.299940551912741     
   2692.5878029303090       -5.3132069658795693       -84.451006384323492     
   2690.6482728554352       -2.6560004490372564       -84.515304662650465     
   2688.6103144785361        2.6250174340893170E-011  -84.492983029706039     
   2686.4773588607472        2.6518832444908020       -84.384293088026055     
   2684.2529130278990        5.2967599646340489       -84.189588784643419     
   2681.9405504056999        7.9317664737656619       -83.909324637898905     
   2679.5439013617861        10.554068391723327       -83.544053818000876     
   2677.0666438909907        13.160864170882171       -83.094426093167485     
   2674.5124944782333        15.749388470639200       -82.561185653213144     
   2671.8851991714610        18.316915377309165       -81.945168822386819     
   2669.1885248948852        20.860761467319815       -81.247301673129684     
   2666.4262510305575        23.378288712496897       -80.468597552206788     
   2663.6021612939826        25.866907227095190       -79.610154530380754     
   2660.7200359271601        28.324077857038763       -78.673152786449904     
   2657.7836442300022        30.747314612592774       -77.658851936063456     
   2654.7967374487157        33.134186946384190       -76.568588315273317     
   2651.7630420372934        35.482321879323905       -75.403772228279465     
   2648.6862533059134        37.789405977557365       -74.165885168290558     
   2645.5700294676685        40.053187184073721       -72.856477019855376     
   2642.4179860927461        42.271476509048895       -71.477163250430621     
   2639.2336909769556        44.442149583370103       -70.029622098348341     
   2636.0206594292849        46.563148080103524       -68.515591763729148     
   2632.7823499810952        48.632481008910908       -66.936867608273204     
   2629.5221605175284        50.648225888609595       -65.295299369243068     
   2626.2434248297873        52.608529803193015       -63.592788392349611     
   2622.9494095851005        54.511610346701133       -61.831284887655059     
   2619.6433117094616        56.355756462342285       -60.012785212036199     
   2616.3282561765955        58.139329181236036       -58.139329181193929     
   2613.0072941950743        59.860762266062039       -56.212997413672326     