 VARIABLES = "x_1", "x_2", "x_3"
 ZONE F = POINT , I =         201  , J =         101
   1193.2386620822117        0.0000000000000000        0.0000000000000000     
   1194.4360404563879        0.0000000000000000        0.0000000000000000     
   1195.7669843363249        0.0000000000000000        0.0000000000000000     
   1197.2275386701128        0.0000000000000000        0.0000000000000000     
   1198.8133114029652        0.0000000000000000        0.0000000000000000     
   1200.5194721644821        0.0000000000000000        0.0000000000000000     
   1202.3407516337663        0.0000000000000000        0.0000000000000000     
   1204.2714418021258        0.0000000000000000        0.0000000000000000     
   1206.3053973688336        0.0000000000000000        0.0000000000000000     
   1208.4360385193695        0.0000000000000000        0.0000000000000000     
   1210.6563553471583        0.0000000000000000        0.0000000000000000     
   1212.9589141886429        0.0000000000000000        0.0000000000000000     
   1215.3358661468988        0.0000000000000000        0.0000000000000000     
   1217.7789580803774        0.0000000000000000        0.0000000000000000     
   1220.2795463300877        0.0000000000000000        0.0000000000000000     
   1222.8286134499601        0.0000000000000000        0.0000000000000000     
   1225.4167881906510        0.0000000000000000        0.0000000000000000     
   1228.0343689660770        0.0000000000000000        0.0000000000000000     
   1230.6713510039956        0.0000000000000000        0.0000000000000000     
   1233.3174573465708        0.0000000000000000        0.0000000000000000     
   1235.9621738238511        0.0000000000000000        0.0000000000000000     
   1238.5947880723247        0.0000000000000000        0.0000000000000000     
   1241.2044326123807        0.0000000000000000        0.0000000000000000     
   1243.7801319329881        0.0000000000000000        0.0000000000000000     
   1246.3108534598289        0.0000000000000000        0.0000000000000000     
   1248.7855622055656        0.0000000000000000        0.0000000000000000     
   1251.1932788190570        0.0000000000000000        0.0000000000000000     
   1253.5231406658634        0.0000000000000000        0.0000000000000000     
   1255.7644654871604        0.0000000000000000        0.0000000000000000     
   1257.9068171003778        0.0000000000000000        0.0000000000000000     
   1259.9400725249118        0.0000000000000000        0.0000000000000000     
   1261.8544898426337        0.0000000000000000        0.0000000000000000     
   1263.6407760382631        0.0000000000000000        0.0000000000000000     
   1265.2901540115315        0.0000000000000000        0.0000000000000000     
   1266.7944279139078        0.0000000000000000        0.0000000000000000     
   1268.1460459395912        0.0000000000000000        0.0000000000000000     
   1269.3381596953891        0.0000000000000000        0.0000000000000000     
   1270.3646792882266        0.0000000000000000        0.0000000000000000     
   1271.2203233031805        0.0000000000000000        0.0000000000000000     
   1271.9006628991858        0.0000000000000000        0.0000000000000000     
   1272.4021593233217        0.0000000000000000        0.0000000000000000     
   1272.7221942365582        0.0000000000000000        0.0000000000000000     
   1272.8590923520619        0.0000000000000000        0.0000000000000000     
   1272.8121360089592        0.0000000000000000        0.0000000000000000     
   1272.5815714367134        0.0000000000000000        0.0000000000000000     
   1272.1686066043824        0.0000000000000000        0.0000000000000000     
   1271.5754006910859        0.0000000000000000        0.0000000000000000     
   1270.8050453550786        0.0000000000000000        0.0000000000000000     
   1269.8615381148934        0.0000000000000000        0.0000000000000000     
   1268.7497482833708        0.0000000000000000        0.0000000000000000     
   1267.4753760106121       -0.0000000000000000        0.0000000000000000     
   1266.0449050921095       -0.0000000000000000        0.0000000000000000     
   1264.4655502811854       -0.0000000000000000        0.0000000000000000     
   1262.7451999087862       -0.0000000000000000        0.0000000000000000     
   1260.8923546576996       -0.0000000000000000        0.0000000000000000     
   1258.9160633621284       -0.0000000000000000        0.0000000000000000     
   1256.8258567077362       -0.0000000000000000        0.0000000000000000     
   1254.6316796928245       -0.0000000000000000        0.0000000000000000     
   1252.3438236797581       -0.0000000000000000        0.0000000000000000     
   1249.9728588191745       -0.0000000000000000        0.0000000000000000     
   1247.5295675701723       -0.0000000000000000        0.0000000000000000     
   1245.0248799701171       -0.0000000000000000        0.0000000000000000     
   1242.4698112305157       -0.0000000000000000        0.0000000000000000     
   1239.8754021531643       -0.0000000000000000        0.0000000000000000     
   1237.2526627759810       -0.0000000000000000        0.0000000000000000     
   1234.6125195728202       -0.0000000000000000        0.0000000000000000     
   1231.9657664482133       -0.0000000000000000        0.0000000000000000     
   1229.3230196881341       -0.0000000000000000        0.0000000000000000     
   1226.6946769529895       -0.0000000000000000        0.0000000000000000     
   1224.0908803302002       -0.0000000000000000        0.0000000000000000     
   1221.5214834018250       -0.0000000000000000        0.0000000000000000     
   1218.9960222281843       -0.0000000000000000        0.0000000000000000     
   1216.5236901016235       -0.0000000000000000        0.0000000000000000     
   1214.1133158854693       -0.0000000000000000        0.0000000000000000     
   1211.7733457216739       -0.0000000000000000        0.0000000000000000     
   1209.5118278663140       -0.0000000000000000        0.0000000000000000     
   1207.3364003944987       -0.0000000000000000        0.0000000000000000     
   1205.2542815048846       -0.0000000000000000        0.0000000000000000     
   1203.2722621481807       -0.0000000000000000        0.0000000000000000     
   1201.3967007032297       -0.0000000000000000        0.0000000000000000     
   1199.6335194277287       -0.0000000000000000        0.0000000000000000     
   1197.9882024178753       -0.0000000000000000        0.0000000000000000     
   1196.4657948215252       -0.0000000000000000        0.0000000000000000     
   1195.0709030622945       -0.0000000000000000        0.0000000000000000     
   1193.8076958469851       -0.0000000000000000        0.0000000000000000     
   1192.6799057452076       -0.0000000000000000        0.0000000000000000     
   1191.6908311478542       -0.0000000000000000        0.0000000000000000     
   1190.8433384297289       -0.0000000000000000        0.0000000000000000     
   1190.1398641609105       -0.0000000000000000        0.0000000000000000     
   1189.5824172311750       -0.0000000000000000        0.0000000000000000     
   1189.1725807717373       -0.0000000000000000        0.0000000000000000     
   1188.9115137787014       -0.0000000000000000        0.0000000000000000     
   1188.7999523627586       -0.0000000000000000        0.0000000000000000     
   1188.8382105698549       -0.0000000000000000        0.0000000000000000     
   1189.0261807376910       -0.0000000000000000        0.0000000000000000     
   1189.3633333730781       -0.0000000000000000        0.0000000000000000     
   1189.8487165552733       -0.0000000000000000        0.0000000000000000     
   1190.4809548905807       -0.0000000000000000        0.0000000000000000     
   1191.2582480636224       -0.0000000000000000        0.0000000000000000     
   1192.1783690508760       -0.0000000000000000        0.0000000000000000     
   1193.2386620822190       -0.0000000000000000       -0.0000000000000000     
   1194.4360404563963       -0.0000000000000000       -0.0000000000000000     
   1195.7669843363342       -0.0000000000000000       -0.0000000000000000     
   1197.2275386701228       -0.0000000000000000       -0.0000000000000000     
   1198.8133114029761       -0.0000000000000000       -0.0000000000000000     
   1200.5194721644937       -0.0000000000000000       -0.0000000000000000     
   1202.3407516337788       -0.0000000000000000       -0.0000000000000000     
   1204.2714418021387       -0.0000000000000000       -0.0000000000000000     
   1206.3053973688473       -0.0000000000000000       -0.0000000000000000     
   1208.4360385193838       -0.0000000000000000       -0.0000000000000000     
   1210.6563553471731       -0.0000000000000000       -0.0000000000000000     
   1212.9589141886584       -0.0000000000000000       -0.0000000000000000     
   1215.3358661469149       -0.0000000000000000       -0.0000000000000000     
   1217.7789580803940       -0.0000000000000000       -0.0000000000000000     
   1220.2795463301045       -0.0000000000000000       -0.0000000000000000     
   1222.8286134499770       -0.0000000000000000       -0.0000000000000000     
   1225.4167881906678       -0.0000000000000000       -0.0000000000000000     
   1228.0343689660945       -0.0000000000000000       -0.0000000000000000     
   1230.6713510040131       -0.0000000000000000       -0.0000000000000000     
   1233.3174573465883       -0.0000000000000000       -0.0000000000000000     
   1235.9621738238689       -0.0000000000000000       -0.0000000000000000     
   1238.5947880723420       -0.0000000000000000       -0.0000000000000000     
   1241.2044326123983       -0.0000000000000000       -0.0000000000000000     
   1243.7801319330051       -0.0000000000000000       -0.0000000000000000     
   1246.3108534598455       -0.0000000000000000       -0.0000000000000000     
   1248.7855622055818       -0.0000000000000000       -0.0000000000000000     
   1251.1932788190725       -0.0000000000000000       -0.0000000000000000     
   1253.5231406658786       -0.0000000000000000       -0.0000000000000000     
   1255.7644654871749       -0.0000000000000000       -0.0000000000000000     
   1257.9068171003914       -0.0000000000000000       -0.0000000000000000     
   1259.9400725249247       -0.0000000000000000       -0.0000000000000000     
   1261.8544898426460       -0.0000000000000000       -0.0000000000000000     
   1263.6407760382742       -0.0000000000000000       -0.0000000000000000     
   1265.2901540115420       -0.0000000000000000       -0.0000000000000000     
   1266.7944279139174       -0.0000000000000000       -0.0000000000000000     
   1268.1460459395994       -0.0000000000000000       -0.0000000000000000     
   1269.3381596953966       -0.0000000000000000       -0.0000000000000000     
   1270.3646792882325       -0.0000000000000000       -0.0000000000000000     
   1271.2203233031853       -0.0000000000000000       -0.0000000000000000     
   1271.9006628991897       -0.0000000000000000       -0.0000000000000000     
   1272.4021593233244       -0.0000000000000000       -0.0000000000000000     
   1272.7221942365595       -0.0000000000000000       -0.0000000000000000     
   1272.8590923520624       -0.0000000000000000       -0.0000000000000000     
   1272.8121360089583       -0.0000000000000000       -0.0000000000000000     
   1272.5815714367111       -0.0000000000000000       -0.0000000000000000     
   1272.1686066043790       -0.0000000000000000       -0.0000000000000000     
   1271.5754006910818       -0.0000000000000000       -0.0000000000000000     
   1270.8050453550727       -0.0000000000000000       -0.0000000000000000     
   1269.8615381148868       -0.0000000000000000       -0.0000000000000000     
   1268.7497482833628       -0.0000000000000000       -0.0000000000000000     
   1267.4753760106032        0.0000000000000000       -0.0000000000000000     
   1266.0449050920997        0.0000000000000000       -0.0000000000000000     
   1264.4655502811743        0.0000000000000000       -0.0000000000000000     
   1262.7451999087741        0.0000000000000000       -0.0000000000000000     
   1260.8923546576866        0.0000000000000000       -0.0000000000000000     
   1258.9160633621150        0.0000000000000000       -0.0000000000000000     
   1256.8258567077221        0.0000000000000000       -0.0000000000000000     
   1254.6316796928097        0.0000000000000000       -0.0000000000000000     
   1252.3438236797426        0.0000000000000000       -0.0000000000000000     
   1249.9728588191588        0.0000000000000000       -0.0000000000000000     
   1247.5295675701561        0.0000000000000000       -0.0000000000000000     
   1245.0248799701003        0.0000000000000000       -0.0000000000000000     
   1242.4698112304986        0.0000000000000000       -0.0000000000000000     
   1239.8754021531468        0.0000000000000000       -0.0000000000000000     
   1237.2526627759637        0.0000000000000000       -0.0000000000000000     
   1234.6125195728030        0.0000000000000000       -0.0000000000000000     
   1231.9657664481958        0.0000000000000000       -0.0000000000000000     
   1229.3230196881168        0.0000000000000000       -0.0000000000000000     
   1226.6946769529725        0.0000000000000000       -0.0000000000000000     
   1224.0908803301829        0.0000000000000000       -0.0000000000000000     
   1221.5214834018082        0.0000000000000000       -0.0000000000000000     
   1218.9960222281675        0.0000000000000000       -0.0000000000000000     
   1216.5236901016076        0.0000000000000000       -0.0000000000000000     
   1214.1133158854534        0.0000000000000000       -0.0000000000000000     
   1211.7733457216589        0.0000000000000000       -0.0000000000000000     
   1209.5118278662994        0.0000000000000000       -0.0000000000000000     
   1207.3364003944844        0.0000000000000000       -0.0000000000000000     
   1205.2542815048710        0.0000000000000000       -0.0000000000000000     
   1203.2722621481682        0.0000000000000000       -0.0000000000000000     
   1201.3967007032184        0.0000000000000000       -0.0000000000000000     
   1199.6335194277174        0.0000000000000000       -0.0000000000000000     
   1197.9882024178651        0.0000000000000000       -0.0000000000000000     
   1196.4657948215151        0.0000000000000000       -0.0000000000000000     
   1195.0709030622861        0.0000000000000000       -0.0000000000000000     
   1193.8076958469774        0.0000000000000000       -0.0000000000000000     
   1192.6799057452001        0.0000000000000000       -0.0000000000000000     
   1191.6908311478480        0.0000000000000000       -0.0000000000000000     
   1190.8433384297239        0.0000000000000000       -0.0000000000000000     
   1190.1398641609064        0.0000000000000000       -0.0000000000000000     
   1189.5824172311716        0.0000000000000000       -0.0000000000000000     
   1189.1725807717353        0.0000000000000000       -0.0000000000000000     
   1188.9115137787001        0.0000000000000000       -0.0000000000000000     
   1188.7999523627584        0.0000000000000000       -0.0000000000000000     
   1188.8382105698554        0.0000000000000000       -0.0000000000000000     
   1189.0261807376926        0.0000000000000000       -0.0000000000000000     
   1189.3633333730806        0.0000000000000000       -0.0000000000000000     
   1189.8487165552770        0.0000000000000000       -0.0000000000000000     
   1190.4809548905853        0.0000000000000000       -0.0000000000000000     
   1191.2582480636281        0.0000000000000000       -0.0000000000000000     
   1192.1783690508821        0.0000000000000000       -0.0000000000000000     
   1193.2386620822265        0.0000000000000000        0.0000000000000000     
   1150.5092839874567        36.156210843937629        0.0000000000000000     
   1152.2779764469472        36.193925909210620        1.1374399447762682     
   1154.2104002200786        36.200947568638838        2.2775705705478844     
   1156.2949785616129        36.176764141406743        3.4197110533718273     
   1158.5195903524252        36.120857343082250        4.5631254570924273     
   1160.8716103112240        36.032707832205531        5.7070202633817901     
   1163.3379552736164        35.911801160427061        6.8505424513964881     
   1165.9051369736924        35.757634089155651        7.9927781846727104     
   1168.5593216481889        35.569721225534146        9.1327521611634523     
   1171.2863966457132        35.347601919850248        10.269427678785862     
   1174.0720440643570        35.090847355509709        11.401707463308302     
   1176.9018212620952        34.799067751805019        12.528435297730850     
   1179.7612478886315        34.471919589317530        13.648398482434642     
   1182.6358988789107        34.109112758348779        14.760331143313291     
   1185.5115026326562        33.710417522771259        15.862918390968940     
   1188.3740433874616        33.275671185614790        16.954801318080488     
   1191.2098665824201        32.804784339035209        18.034582804566551     
   1194.0057858132479        32.297746580488351        19.100834081620249     
   1196.7491898066328        31.754631579311450        20.152101986637511     
   1199.4281476997562        31.175601383766118        21.186916822136819     
   1202.0315108084501        30.560909868054129        22.203800713681961     
   1204.5490090114006        29.910905231870604        23.201276345310784     
   1206.9713398737565        29.226031481532143        24.177875936782172     
   1209.2902486851999        28.506828841264522        25.132150315776403     
   1211.4985976964522        27.753933065344359        26.062677930635818     
   1213.5904230033379        26.968073645799780        26.968073645802573     
   1215.5609777452628        26.150070935499230        27.846997163130624     
   1217.4067605491741        25.300832231820436        28.698160917868247     
   1219.1255284522617        24.421346890773847        29.520337308270399     
   1220.7162938664496        23.512680564537554        30.312365132249287     
   1222.1793054933732        22.575968675983930        31.073155122751878     
   1223.5160134474404        21.612409261174346        31.801694495036120     
   1224.7290191841989        20.623255324349412        32.497050442935432     
   1225.8220111494809        19.609806859195874        33.158372546684895     
   1226.7996873509949        18.573402694875082        33.784894081015359     
   1227.6676662992206        17.515412325396991        34.375932238084673     
   1228.4323879617928        16.437227876560591        34.930887304533073     
   1229.1010065209034        15.340256356180006        35.449240854742456     
   1229.6812768147092        14.225912321147966        35.930553042584116     
   1230.1814363821284        13.095611079648730        36.374459091046404     
   1230.6100850186760        11.950762529191367        36.780665092793527     
   1230.9760636939527        10.792765711801209        37.148943244732955     
   1231.2883345854866        9.6230041473939831        37.479126646036633     
   1231.5558638560722        8.4428419857387826        37.771103791880890     
   1231.7875086504996        7.2536209971081664        38.024812894677048     
   1231.9919096204335        6.0566584022471410        38.240236161080283     
   1232.1773901108943        4.8532455241034933        38.417394146980584     
   1232.3518629650123        3.6446472271829937        38.556340304415947     
   1232.5227457315757        2.4321020956571164        38.657155824342098     
   1232.6968848970332        1.2168232885974111        38.719944867862630     
   1232.8804896137394       -4.0066630900629828E-012   38.744830266260948     
   1233.0790752616103       -1.2172005574555280        38.731949757326099     
   1233.2974170622451       -2.4336307325793576        38.681452812325020     
   1233.5395138628876       -3.6481596725257024        38.593498094781282     
   1233.8085621216342       -4.8596703119088183        38.468251579165113     
   1234.1069400531471       -6.0670562114787145        38.305885344814136     
   1234.4362018336446       -7.2692183435359796        38.106577047987045     
   1234.7970817122175       -8.4650619198997479        37.870510062962317     
   1235.1895078296582       -9.6534933555375648        37.597874271574071     
   1235.6126255027930       -10.833417457027210        37.288867469553111     
   1236.0648296888742       -12.003734919889217        36.943697347543129     
   1236.5438062981282       -13.163340212531061        36.562583994726388     
   1237.0465819707931       -14.311119917094747        36.145762863674790     
   1237.5695818760792       -15.445951588906917        35.693488126419496     
   1238.1086950233923       -16.566703186510640        35.206036343911130     
   1238.6593465004062       -17.672233113437969        34.683710364157825     
   1239.2165759686145       -18.761390901017439        34.126843358540128     
   1239.7751216560582       -19.833018548689783        33.535802901295085     
   1240.3295089910907       -20.885952524661594        32.910994994132125     
   1240.8741429231386       -21.919026415443025        32.252867936592061     
   1241.4034028799872       -22.931074198129100        31.561915943278301     
   1241.9117392202861       -23.920934094485251        30.838682411643592     
   1242.3937699591654       -24.887452951326434        30.083762748733335     
   1242.8443764787594       -25.829491077717588        29.297806672240718     
   1243.2587968886005       -26.745927456582674        28.481519910424954     
   1243.6327156775023       -27.635665236814056        27.635665236805469     
   1243.9623483022965       -28.497637402340292        26.761062788911527     
   1244.2445193923741       -29.330812507229322        25.858589635483824     
   1244.4767333140364       -30.134200361112789        24.929178573054060     
   1244.6572359355609       -30.906857547283234        23.973816150348604     
   1244.7850665616265       -31.647892656915122        22.993539936989411     
   1244.8600991618196       -32.356471127059734        21.989435070964028     
   1244.8830721986237       -33.031819577317727        20.962630136754555     
   1244.8556065604921       -33.673229550232975        19.914292442295931     
   1244.7802113191988       -34.280060573192259        18.845622777554645     
   1244.6602772509693       -34.851742474570401        17.757849750011843     
   1244.5000582806197       -35.387776903550147        16.652223802310903     
   1244.3046412198996       -35.887738020927173        15.530011024499688     
   1244.0799043685668       -36.351272346700249        14.392486877485034     
   1243.8324657232217       -36.778097768752581        13.240929945464888     
   1243.5696216893357       -37.168001734875091        12.076615833272092     
   1243.2992773123510       -37.520838667240376        10.900811319931030     
   1243.0298691314490       -37.836526653741835        9.7147688725635550     
   1242.7702818135508       -38.115043483997077        8.5197216154420623     
   1242.5297597455367       -38.356422109000768        7.3168788378859562     
   1242.3178147512297       -38.560745612234868        6.1074221122828654     
   1242.1441310591845       -38.728141786439771        4.8925020802458690     
   1242.0184685816298       -38.858777414257787        3.6732359512403900     
   1241.9505654785496       -38.952852352706415        2.4507057443431437     
   1241.9500408790434       -39.010593521126040        1.2259572904959408     
   1242.0262985199954       -39.032248890130624       -8.0727709929560331E-012
   1242.1884319452058       -39.018081565471135       -1.2261926117858286     
   1242.4451317915984       -38.968364055913490       -2.4516816580051337     
   1242.8045955777807       -38.883372808556359       -3.6755609005366559     
   1243.2744403085296       -38.763383088776649       -4.8969540920820025     
   1243.8616181204177       -38.608664275466253       -6.1150116829562498     
   1244.5723351221125       -38.419475635658884       -7.3289069413983272     
   1245.4119735303207       -38.196062636229030       -8.5378315416043709     
   1246.3850171709655       -37.938653844223680       -9.7409906783029800     
   1247.4949804061894       -37.647458461642756       -10.937597770815671     
   1248.7443405619817       -37.322664535151993       -12.126868823373645     
   1250.1344739687211       -36.964437876261215       -13.308016512195495     
   1251.6655957872827       -36.572921722856897       -14.480244073655461     
   1253.3367038756285       -36.148237168508558       -15.642739071948363     
   1255.1455270533124       -35.690484381502046       -16.794667129108880     
   1257.0884782419187       -35.199744630874605       -17.935165705146037     
   1259.1606130951111       -34.676083131594659       -19.063338021428237     
   1261.3555948790572       -34.119552715175729       -20.178247226253418     
   1263.6656665178236       -33.530198325161940       -21.278910907641716     
   1266.0816308734875       -32.908062328795083       -22.364296064589951     
   1268.5928404805102       -32.253190626510865       -23.433314654036259     
   1271.1871980908604       -31.565639529488724       -24.484819836214818     
   1273.8511695016832       -30.845483362123908       -25.517603045458991     
   1276.5698102214587       -30.092822730910189       -26.530392016273641     
   1279.3268075730991       -29.307793383821878       -27.521849895007254     
   1282.1045398224642       -28.490575565001969       -28.490575565016712     
   1284.8841538473516       -27.641403748682229       -29.435105307110202     
   1287.6456627148266       -26.760576614241256       -30.353915906563845     
   1290.3680643046278       -25.848467101790952       -31.245429302476197     
   1293.0294817963932       -24.905532365513039       -32.108018854108700     
   1295.6073264247800       -23.932323421173646       -32.940017271790865     
   1298.0784823993924       -22.929494266023671       -33.739726226823727     
   1300.4195132912380       -21.897810234975008       -34.505427615782317     
   1302.6068885154327       -20.838155347923401       -35.235396410263213     
   1304.6172278088020       -19.751538400761472       -35.927914974421370     
   1306.4275608353919       -18.639097558270333       -36.581288681022038     
   1308.0155982833860       -17.502103221768042       -37.193862604047425     
   1309.3600100798174       -16.341958968856819       -37.764039014398293     
   1310.4407056848609       -15.160200397143571       -38.290295357461105     
   1311.2391108771351       -13.958491748145311       -38.771202349999037     
   1311.7384350462048       -12.738620240872182       -39.205441801698370     
   1311.9239228049889       -11.502488105285885       -39.591823746306289     
   1311.7830837523688       -10.252102371837861       -39.929302460773620     
   1311.3058944740214       -8.9895625419194207       -40.216990959716711     
   1310.4849673735230       -7.7170463322355562       -40.454173577600294     
   1309.3156816677399       -6.4367937505366370       -40.640316292180465     
   1307.7962728371228       -5.1510898175175548       -40.775074498823173     
   1305.9278779550391       -3.8622462969527085       -40.858298014265088     
   1303.7145355807413       -2.5725828306982526       -40.890033167291364     
   1301.1631402288465       -1.2844078951467706       -40.870521919072246     
   1298.2833527601185        1.2675754522812788E-011  -40.800198043496074     
   1295.0874693092301        1.2784104614481380       -40.679680483577371     
   1291.5902525145837        2.5486583276215016       -40.509764079867232     
   1287.8087297910713        3.8086594074706048       -40.291407937142012     
   1283.7619641486992        5.0564245509964110       -40.025721753554762     
   1279.4708035821759        6.2900718198333179       -39.713950479805050     
   1274.9576153280323        7.5078365903533753       -39.357457703562154     
   1270.2460113106538        8.7080794881294779       -38.957708166164089     
   1265.3605708942230        9.8892921175792647       -38.516249815203729     
   1260.3265666526283        11.050100611576019       -38.034695779464343     
   1255.1696983005274        12.189267080496775       -37.514706623834925     
   1249.9158392374090        13.305689086890276       -36.957973203769427     
   1244.5907993857368        14.398397309626880       -36.366200394195630     
   1239.2201071958220        15.466551589559430       -35.741091919177002     
   1233.8288128819511        16.509435567450602       -35.084336458570597     
   1228.4413141791456        17.526450134733359       -34.397595158610791     
   1223.0812051938763        18.517105919441505       -33.682490626624961     
   1217.7711482842608        19.481015024505226       -32.940597447372717     
   1212.5327683581868        20.417882224807848       -32.173434220808218     
   1207.3865685275819        21.327495814258825       -31.382457088995665     
   1202.3518657043271        22.209718275919833       -30.569054693711667     
   1197.4467444645816        23.064476928114487       -29.734544485889366     
   1192.6880273363827        23.891754678492628       -28.880170293203967     
   1188.0912595711588        24.691580997099326       -28.007101042294750     
   1183.6707064325537        25.464023199323222       -27.116430526780956     
   1179.4393610646098        26.209178110720075       -26.209178110701092     
   1175.4089610748622        26.927164168508636       -25.286290258620230     