 VARIABLES = "x_1", "x_2", "x_3"
 ZONE F = POINT , I =         201  , J =         101
   1873.2509537148205        0.0000000000000000        0.0000000000000000     
   1873.2509537148205        0.0000000000000000        0.0000000000000000     
   1873.2509537148205        0.0000000000000000        0.0000000000000000     
   1873.2509537148205        0.0000000000000000        0.0000000000000000     
   1873.2509537148205        0.0000000000000000        0.0000000000000000     
   1873.2509537148205        0.0000000000000000        0.0000000000000000     
   1873.2509537148205        0.0000000000000000        0.0000000000000000     
   1873.2509537148205        0.0000000000000000        0.0000000000000000     
   1873.2509537148205        0.0000000000000000        0.0000000000000000     
   1873.2509537148205        0.0000000000000000        0.0000000000000000     
   1873.2509537148205        0.0000000000000000        0.0000000000000000     
   1873.2509537148205        0.0000000000000000        0.0000000000000000     
   1873.2509537148205        0.0000000000000000        0.0000000000000000     
   1873.2509537148205        0.0000000000000000        0.0000000000000000     
   1873.2509537148205        0.0000000000000000        0.0000000000000000     
   1873.2509537148205        0.0000000000000000        0.0000000000000000     
   1873.2509537148205        0.0000000000000000        0.0000000000000000     
   1873.2509537148205        0.0000000000000000        0.0000000000000000     
   1873.2509537148205        0.0000000000000000        0.0000000000000000     
   1873.2509537148205        0.0000000000000000        0.0000000000000000     
   1873.2509537148205        0.0000000000000000        0.0000000000000000     
   1873.2509537148205        0.0000000000000000        0.0000000000000000     
   1873.2509537148205        0.0000000000000000        0.0000000000000000     
   1873.2509537148205        0.0000000000000000        0.0000000000000000     
   1873.2509537148205        0.0000000000000000        0.0000000000000000     
   1873.2509537148205        0.0000000000000000        0.0000000000000000     
   1873.2509537148205        0.0000000000000000        0.0000000000000000     
   1873.2509537148205        0.0000000000000000        0.0000000000000000     
   1873.2509537148205        0.0000000000000000        0.0000000000000000     
   1873.2509537148205        0.0000000000000000        0.0000000000000000     
   1873.2509537148205        0.0000000000000000        0.0000000000000000     
   1873.2509537148205        0.0000000000000000        0.0000000000000000     
   1873.2509537148205        0.0000000000000000        0.0000000000000000     
   1873.2509537148205        0.0000000000000000        0.0000000000000000     
   1873.2509537148205        0.0000000000000000        0.0000000000000000     
   1873.2509537148205        0.0000000000000000        0.0000000000000000     
   1873.2509537148205        0.0000000000000000        0.0000000000000000     
   1873.2509537148205        0.0000000000000000        0.0000000000000000     
   1873.2509537148205        0.0000000000000000        0.0000000000000000     
   1873.2509537148205        0.0000000000000000        0.0000000000000000     
   1873.2509537148205        0.0000000000000000        0.0000000000000000     
   1873.2509537148205        0.0000000000000000        0.0000000000000000     
   1873.2509537148205        0.0000000000000000        0.0000000000000000     
   1873.2509537148205        0.0000000000000000        0.0000000000000000     
   1873.2509537148205        0.0000000000000000        0.0000000000000000     
   1873.2509537148205        0.0000000000000000        0.0000000000000000     
   1873.2509537148205        0.0000000000000000        0.0000000000000000     
   1873.2509537148205        0.0000000000000000        0.0000000000000000     
   1873.2509537148205        0.0000000000000000        0.0000000000000000     
   1873.2509537148205        0.0000000000000000        0.0000000000000000     
   1873.2509537148205       -0.0000000000000000        0.0000000000000000     
   1873.2509537148205       -0.0000000000000000        0.0000000000000000     
   1873.2509537148205       -0.0000000000000000        0.0000000000000000     
   1873.2509537148205       -0.0000000000000000        0.0000000000000000     
   1873.2509537148205       -0.0000000000000000        0.0000000000000000     
   1873.2509537148205       -0.0000000000000000        0.0000000000000000     
   1873.2509537148205       -0.0000000000000000        0.0000000000000000     
   1873.2509537148205       -0.0000000000000000        0.0000000000000000     
   1873.2509537148205       -0.0000000000000000        0.0000000000000000     
   1873.2509537148205       -0.0000000000000000        0.0000000000000000     
   1873.2509537148205       -0.0000000000000000        0.0000000000000000     
   1873.2509537148205       -0.0000000000000000        0.0000000000000000     
   1873.2509537148205       -0.0000000000000000        0.0000000000000000     
   1873.2509537148205       -0.0000000000000000        0.0000000000000000     
   1873.2509537148205       -0.0000000000000000        0.0000000000000000     
   1873.2509537148205       -0.0000000000000000        0.0000000000000000     
   1873.2509537148205       -0.0000000000000000        0.0000000000000000     
   1873.2509537148205       -0.0000000000000000        0.0000000000000000     
   1873.2509537148205       -0.0000000000000000        0.0000000000000000     
   1873.2509537148205       -0.0000000000000000        0.0000000000000000     
   1873.2509537148205       -0.0000000000000000        0.0000000000000000     
   1873.2509537148205       -0.0000000000000000        0.0000000000000000     
   1873.2509537148205       -0.0000000000000000        0.0000000000000000     
   1873.2509537148205       -0.0000000000000000        0.0000000000000000     
   1873.2509537148205       -0.0000000000000000        0.0000000000000000     
   1873.2509537148205       -0.0000000000000000        0.0000000000000000     
   1873.2509537148205       -0.0000000000000000        0.0000000000000000     
   1873.2509537148205       -0.0000000000000000        0.0000000000000000     
   1873.2509537148205       -0.0000000000000000        0.0000000000000000     
   1873.2509537148205       -0.0000000000000000        0.0000000000000000     
   1873.2509537148205       -0.0000000000000000        0.0000000000000000     
   1873.2509537148205       -0.0000000000000000        0.0000000000000000     
   1873.2509537148205       -0.0000000000000000        0.0000000000000000     
   1873.2509537148205       -0.0000000000000000        0.0000000000000000     
   1873.2509537148205       -0.0000000000000000        0.0000000000000000     
   1873.2509537148205       -0.0000000000000000        0.0000000000000000     
   1873.2509537148205       -0.0000000000000000        0.0000000000000000     
   1873.2509537148205       -0.0000000000000000        0.0000000000000000     
   1873.2509537148205       -0.0000000000000000        0.0000000000000000     
   1873.2509537148205       -0.0000000000000000        0.0000000000000000     
   1873.2509537148205       -0.0000000000000000        0.0000000000000000     
   1873.2509537148205       -0.0000000000000000        0.0000000000000000     
   1873.2509537148205       -0.0000000000000000        0.0000000000000000     
   1873.2509537148205       -0.0000000000000000        0.0000000000000000     
   1873.2509537148205       -0.0000000000000000        0.0000000000000000     
   1873.2509537148205       -0.0000000000000000        0.0000000000000000     
   1873.2509537148205       -0.0000000000000000        0.0000000000000000     
   1873.2509537148205       -0.0000000000000000        0.0000000000000000     
   1873.2509537148205       -0.0000000000000000        0.0000000000000000     
   1873.2509537148205       -0.0000000000000000        0.0000000000000000     
   1873.2509537148205       -0.0000000000000000       -0.0000000000000000     
   1873.2509537148205       -0.0000000000000000       -0.0000000000000000     
   1873.2509537148205       -0.0000000000000000       -0.0000000000000000     
   1873.2509537148205       -0.0000000000000000       -0.0000000000000000     
   1873.2509537148205       -0.0000000000000000       -0.0000000000000000     
   1873.2509537148205       -0.0000000000000000       -0.0000000000000000     
   1873.2509537148205       -0.0000000000000000       -0.0000000000000000     
   1873.2509537148205       -0.0000000000000000       -0.0000000000000000     
   1873.2509537148205       -0.0000000000000000       -0.0000000000000000     
   1873.2509537148205       -0.0000000000000000       -0.0000000000000000     
   1873.2509537148205       -0.0000000000000000       -0.0000000000000000     
   1873.2509537148205       -0.0000000000000000       -0.0000000000000000     
   1873.2509537148205       -0.0000000000000000       -0.0000000000000000     
   1873.2509537148205       -0.0000000000000000       -0.0000000000000000     
   1873.2509537148205       -0.0000000000000000       -0.0000000000000000     
   1873.2509537148205       -0.0000000000000000       -0.0000000000000000     
   1873.2509537148205       -0.0000000000000000       -0.0000000000000000     
   1873.2509537148205       -0.0000000000000000       -0.0000000000000000     
   1873.2509537148205       -0.0000000000000000       -0.0000000000000000     
   1873.2509537148205       -0.0000000000000000       -0.0000000000000000     
   1873.2509537148205       -0.0000000000000000       -0.0000000000000000     
   1873.2509537148205       -0.0000000000000000       -0.0000000000000000     
   1873.2509537148205       -0.0000000000000000       -0.0000000000000000     
   1873.2509537148205       -0.0000000000000000       -0.0000000000000000     
   1873.2509537148205       -0.0000000000000000       -0.0000000000000000     
   1873.2509537148205       -0.0000000000000000       -0.0000000000000000     
   1873.2509537148205       -0.0000000000000000       -0.0000000000000000     
   1873.2509537148205       -0.0000000000000000       -0.0000000000000000     
   1873.2509537148205       -0.0000000000000000       -0.0000000000000000     
   1873.2509537148205       -0.0000000000000000       -0.0000000000000000     
   1873.2509537148205       -0.0000000000000000       -0.0000000000000000     
   1873.2509537148205       -0.0000000000000000       -0.0000000000000000     
   1873.2509537148205       -0.0000000000000000       -0.0000000000000000     
   1873.2509537148205       -0.0000000000000000       -0.0000000000000000     
   1873.2509537148205       -0.0000000000000000       -0.0000000000000000     
   1873.2509537148205       -0.0000000000000000       -0.0000000000000000     
   1873.2509537148205       -0.0000000000000000       -0.0000000000000000     
   1873.2509537148205       -0.0000000000000000       -0.0000000000000000     
   1873.2509537148205       -0.0000000000000000       -0.0000000000000000     
   1873.2509537148205       -0.0000000000000000       -0.0000000000000000     
   1873.2509537148205       -0.0000000000000000       -0.0000000000000000     
   1873.2509537148205       -0.0000000000000000       -0.0000000000000000     
   1873.2509537148205       -0.0000000000000000       -0.0000000000000000     
   1873.2509537148205       -0.0000000000000000       -0.0000000000000000     
   1873.2509537148205       -0.0000000000000000       -0.0000000000000000     
   1873.2509537148205       -0.0000000000000000       -0.0000000000000000     
   1873.2509537148205       -0.0000000000000000       -0.0000000000000000     
   1873.2509537148205       -0.0000000000000000       -0.0000000000000000     
   1873.2509537148205       -0.0000000000000000       -0.0000000000000000     
   1873.2509537148205       -0.0000000000000000       -0.0000000000000000     
   1873.2509537148205        0.0000000000000000       -0.0000000000000000     
   1873.2509537148205        0.0000000000000000       -0.0000000000000000     
   1873.2509537148205        0.0000000000000000       -0.0000000000000000     
   1873.2509537148205        0.0000000000000000       -0.0000000000000000     
   1873.2509537148205        0.0000000000000000       -0.0000000000000000     
   1873.2509537148205        0.0000000000000000       -0.0000000000000000     
   1873.2509537148205        0.0000000000000000       -0.0000000000000000     
   1873.2509537148205        0.0000000000000000       -0.0000000000000000     
   1873.2509537148205        0.0000000000000000       -0.0000000000000000     
   1873.2509537148205        0.0000000000000000       -0.0000000000000000     
   1873.2509537148205        0.0000000000000000       -0.0000000000000000     
   1873.2509537148205        0.0000000000000000       -0.0000000000000000     
   1873.2509537148205        0.0000000000000000       -0.0000000000000000     
   1873.2509537148205        0.0000000000000000       -0.0000000000000000     
   1873.2509537148205        0.0000000000000000       -0.0000000000000000     
   1873.2509537148205        0.0000000000000000       -0.0000000000000000     
   1873.2509537148205        0.0000000000000000       -0.0000000000000000     
   1873.2509537148205        0.0000000000000000       -0.0000000000000000     
   1873.2509537148205        0.0000000000000000       -0.0000000000000000     
   1873.2509537148205        0.0000000000000000       -0.0000000000000000     
   1873.2509537148205        0.0000000000000000       -0.0000000000000000     
   1873.2509537148205        0.0000000000000000       -0.0000000000000000     
   1873.2509537148205        0.0000000000000000       -0.0000000000000000     
   1873.2509537148205        0.0000000000000000       -0.0000000000000000     
   1873.2509537148205        0.0000000000000000       -0.0000000000000000     
   1873.2509537148205        0.0000000000000000       -0.0000000000000000     
   1873.2509537148205        0.0000000000000000       -0.0000000000000000     
   1873.2509537148205        0.0000000000000000       -0.0000000000000000     
   1873.2509537148205        0.0000000000000000       -0.0000000000000000     
   1873.2509537148205        0.0000000000000000       -0.0000000000000000     
   1873.2509537148205        0.0000000000000000       -0.0000000000000000     
   1873.2509537148205        0.0000000000000000       -0.0000000000000000     
   1873.2509537148205        0.0000000000000000       -0.0000000000000000     
   1873.2509537148205        0.0000000000000000       -0.0000000000000000     
   1873.2509537148205        0.0000000000000000       -0.0000000000000000     
   1873.2509537148205        0.0000000000000000       -0.0000000000000000     
   1873.2509537148205        0.0000000000000000       -0.0000000000000000     
   1873.2509537148205        0.0000000000000000       -0.0000000000000000     
   1873.2509537148205        0.0000000000000000       -0.0000000000000000     
   1873.2509537148205        0.0000000000000000       -0.0000000000000000     
   1873.2509537148205        0.0000000000000000       -0.0000000000000000     
   1873.2509537148205        0.0000000000000000       -0.0000000000000000     
   1873.2509537148205        0.0000000000000000       -0.0000000000000000     
   1873.2509537148205        0.0000000000000000       -0.0000000000000000     
   1873.2509537148205        0.0000000000000000       -0.0000000000000000     
   1873.2509537148205        0.0000000000000000       -0.0000000000000000     
   1873.2509537148205        0.0000000000000000       -0.0000000000000000     
   1873.2509537148205        0.0000000000000000       -0.0000000000000000     
   1873.2509537148205        0.0000000000000000       -0.0000000000000000     
   1873.2509537148205        0.0000000000000000       -0.0000000000000000     
   1873.2509537148205        0.0000000000000000        0.0000000000000000     
   2033.8410022293083        63.916028425938386        0.0000000000000000     
   2022.2906518414441        63.521684450946793        1.9962493550773877     
   2010.7295460165847        63.065031172982053        3.9677154515894770     
   1999.1695812566563        62.547609183397661        5.9124898415563170     
   1987.6222474200274        61.971001827560983        7.8287581425589341     
   1976.0986282262386        61.336829918175617        9.7147994778721678     
   1964.6094032983999        60.646746656317461        11.568985656058086     
   1953.1648516039577        59.902432766303356        13.389780113235643     
   1941.7748561583928        59.105591848677832        15.175736640447942     
   1930.4489098610434        58.257945953945075        16.925497917658706     
   1919.1961223374437        57.361231378180896        18.637793874945302     
   1908.0252276682500        56.417194680331747        20.311439900436959     
   1896.9445928909167        55.427588919838165        21.945334913491759     
   1885.9622271665521        54.394170112197038        23.538459320529395     
   1875.0857915108961        53.318693899197548        25.089872869853842     
   1864.3226089949007        52.202912429815825        26.598712420722251     
   1853.6796753269673        51.048571447125880        28.064189640854668     
   1843.1636697353604        49.857407576068958        29.485588645541050     
   1832.7809660757762        48.631145806511434        30.862263590497871     
   1822.5376440951813        47.371497165699807        32.193636229657450     
   1812.4395007891267        46.080156573985327        33.479193448149061     
   1802.4920617954936        44.758800877527250        34.718484779850442     
   1792.7005927731882        43.409087051587029        35.911119918058333     
   1783.0701107195202        42.032650567984383        37.056766227043752     
   1773.6053951850013        40.631103920296596        38.155146261528451     
   1764.3109993489365        39.206035300433371        39.206035300437428     
   1755.1912609235471        37.759007420307071        40.209258900652600     
   1746.2503128584165        36.291556472435197        41.164690475911293     
   1737.4920938208043        34.805191223453555        42.072248905459276     
   1728.9203584307920        33.301392234677905        42.931896176579620     
   1720.5386872334407        31.781611204029080        43.743635064675424     
   1712.3504963929131        30.247270423819813        44.507506854179944     
   1704.3590470962260        28.699762349097949        45.223589103206578     
   1696.5674546565178        27.140449271435781        45.891993454522641     
   1688.9786973078894        25.570663093256709        46.512863495140884     
   1681.5956246856420        23.991705197987784        47.086372666561772     
   1674.4209659874089        22.404846411524101        47.612722227470883     
   1667.4573378120408        20.811327050682976        48.092139270493227     
   1660.7072516743258        19.212357054512950        48.524874794429898     
   1654.1731211946217        17.609116194502928        48.911201833248896     
   1647.8572689633377        16.002754359910686        49.251413642970498     
   1641.7619330808611        14.394391914594493        49.545821947474792     
   1635.8892733740502        12.785120121888768        49.794755244164207     
   1630.2413772908137        11.176001634212540        49.998557170335843     
   1624.8202654745367        9.5680710442380441        50.157584931053918     
   1619.6278970202704        7.9623354945763607        50.272207789262680     
   1614.6661744146204        6.3597753430565742        50.342805618841162     
   1609.9369481611964        4.7613448807856784        50.369767521273474     
   1605.4420210933661        3.1679731002769933        50.353490506591484     
   1601.1831523757533        1.5805645110260655        50.294378239236238     
   1597.1620611956769       -5.1905195461780141E-012   50.192839849485736     
   1593.3804301452924       -1.5728622654634714        50.049288811101341     
   1589.8399082947956       -3.1371858946430340        49.864141885859858     
   1586.5421139565385       -4.6921552928407229        49.637818135656332     
   1583.4886371393702       -6.2369746453360433        49.370738002887535     
   1580.6810416919436       -7.7708668682721704        49.063322459855371     
   1578.1208671331035       -9.2930725286901588        48.715992227962793     
   1575.8096301668349       -10.802848735955671        48.329167067512024     
   1573.7488258785590       -12.299468006814406        47.903265138954943     
   1571.9399286089117       -13.782217106320266        47.438702436489464     
   1570.3843925003771       -15.250395866898490        46.935892294939158     
   1569.0836517114853       -16.703315987835815        46.395244970901956     
   1568.0391202925261       -18.140299817530977        45.817167299199618     
   1567.2521917160104       -19.560679120891432        45.202062425708384     
   1566.7242380544219       -20.963793834328296        44.550329617698324     
   1566.4566087970427       -22.348990810878902        43.862364152854425     
   1566.4506292970109       -23.715622558078422        43.138557288197234     
   1566.7075988390384       -25.063045971306487        42.379296310160427     
   1567.2287883176259       -26.390621065454287        41.584964667120268     
   1568.0154375149989       -27.697709707891459        40.755942185702743     
   1569.0687519674173       -28.983674355860515        39.892605372218263     
   1570.3898994080478       -30.247876801591328        38.995327800591461     
   1571.9800057741136       -31.489676928607725        38.064480588159448     
   1573.8401507657040       -32.708431482894675        37.100432960708510     
   1575.9713629433350       -33.903492862806573        36.103552908101449     
   1578.3746143511642       -35.074207931826081        35.074207931815181     
   1581.0508146527122       -36.219916858527426        34.012765885659277     
   1584.0008047659783       -37.339951988359964        32.919595910876396     
   1587.2253499850242       -38.433636752143705        31.795069466734731     
   1590.7251325754728       -39.500284616461862        30.639561457607343     
   1594.5007438318410       -40.539198081440937        29.453451457389924     
   1598.5526755853718       -41.549667731730082        28.237125031935847     
   1602.8813111519146       -42.530971346822895        26.990975159980916     
   1607.4869157105597       -43.482373077208244        25.715403752787626     
   1612.3696261051086       -44.403122693187690        24.410823272456252     
   1617.5294400621478       -45.292454913554700        23.077658448525085     
   1622.9662048213938       -46.149588821690898        21.716348092109911     
   1628.6796051763210       -46.973727376996429        20.327347006412147     
   1634.6691509256016       -47.764057029926562        18.911127991949552     
   1640.9341637389218       -48.519747449256194        17.468183944333454     
   1647.4737634440451       -49.239951370528544        15.999030041825067     
   1654.2868537457509       -49.923804574960151        14.504206019251443     
   1661.3721073914612       -50.570426008365558        12.984278524143102     
   1668.7279508029656       -51.178918049923759        11.439843550170533     
   1676.3525481987306       -51.748366940826934        9.8715289421023051     
   1684.2437852368353       -52.277843383023786        8.2799969655834484     
   1692.3992522145832       -52.766403318382750        6.6659469340373025     
   1700.8162268673350       -53.213088898646902        5.0301178839286464     
   1709.4916568161370       -53.616929656523077        3.3732912884915818     
   1718.4221417211359       -53.976943888127735        1.6962937988242743     
   1727.6039152057426       -54.292140256794305       -1.1228869139573753E-011
   1737.0328266248648       -54.561519627917058       -1.7146648315678541     
   1746.7043227592915       -54.784077144051281       -3.4467219843278651     
   1756.6134295274949       -54.958804548900304       -5.1951365982254147     
   1766.7547338155705       -55.084692768080494       -6.9588149992984709     
   1777.1223655357214       -55.160734753653898       -8.7366021018599689     
   1787.7099800336371       -55.185928598346720       -10.527278899052561     
   1798.5107409750465       -55.159280924113496       -12.329560064115730     
   1809.5173038516725       -55.079810548255942       -14.142091686127250     
   1820.7218002566196       -54.946552428651707       -15.963449165365073     
   1832.1158230887354       -54.758561887785163       -17.792135294743737     
   1843.6904128545300       -54.514919113193613       -19.626578554987127     
   1855.4360452447206       -54.214733929648368       -21.465131652278473     
   1867.3426201701263       -53.857150835879636       -23.306070328048321     
   1879.3994524482928       -53.441354295931134       -25.147592471289496     
   1891.5952643377377       -52.966574272305522       -26.987817564292392     
   1903.9181801207458       -52.432091984944030       -28.824786492938617     
   1916.3557229380613       -51.837245876792750       -30.656461752641199     
   1928.8948140794012       -51.181437763266509       -32.480728080641242     
   1941.5217749320968       -50.464139139352739       -34.295393544627132     
   1954.2223317863927       -49.684897614444203       -36.098191116504680     
   1966.9816236894019       -48.843343441278250       -37.886780758578638     
   1979.7842135306687       -47.939196101648761       -39.658752047387487     
   1992.6141025301322       -46.972270907885992       -41.411627357934087     
   2005.4547482842177       -45.942485575531883       -43.142865628065159     
   2018.2890865074075       -44.849866719230661       -44.849866719253875     
   2031.0995565851540       -43.694556220676681       -46.529976386035791     
   2043.8681310290613       -42.476817414576679       -48.180491861837410     
   2056.5763488972611       -41.197041036070196       -49.798668063939274     
   2069.2053532116379       -39.855750870976806       -51.381724414852577     
   2081.7359323693086       -38.453609048677478       -52.926852271496344     
   2094.1485655088200       -36.991420916460498       -54.431222947291559     
   2106.4234717520280       -35.470139433837375       -55.891996305692629     
   2118.5406632011259       -33.890869025720413       -57.306329896833795     
   2130.4800015270980       -32.254868834511434       -58.671388601951328     
   2142.2212579416132       -30.563555313117998       -59.984354743154597     
   2153.7441762996118       -28.818504103733808       -61.242438609053814     
   2165.0285390351278       -27.021451150901807       -62.442889339826621     
   2176.0542355891375       -25.174293001943575       -63.583006108633370     
   2186.8013329459554       -23.279086253261912       -64.660149529996531     
   2197.2501478547774       -21.338046107291458       -65.671753219962085     
   2207.3813202762653       -19.353544011928314       -66.615335427691193     
   2217.1758875610917       -17.328104362060643       -67.488510653696835     
   2226.6153588391553       -15.264400251256163       -68.289001166367242     
   2235.6817890752386       -13.165248270651373       -69.014648325798845     
   2244.3578522298913       -11.033602361502320       -69.663423622392685     
   2252.6269129538637       -8.8725467375817981       -70.233439337219522     
   2260.4730962409126       -6.6852879034857891       -70.722958731890628     
   2267.8813544676254       -4.4751458048024366       -71.130405677616011     
   2274.8375312601443       -2.2455441558333975       -71.454373636301938     
   2281.3284216465786        2.2273688557455472E-011  -71.693633910928469     
   2287.3418279802040        2.2578874331611600       -71.847143088015770     
   2292.8666111520938        4.5244485015746836       -71.914049601676766     
   2297.8927366523362        6.7959554756467320       -71.893699356484078     
   2302.4113150856310        9.0686353274308562       -71.785640355036335     
   2306.4146367996059        11.338682892307618       -71.589626285578760     
   2309.8962003414081        13.602274306490942       -71.305619035159339     
   2312.8507345194471        15.855580620633333       -70.933790104435943     
   2315.2742139114616        18.094781487847669       -70.474520911216132     
   2317.1638677263541        20.316078823832385       -69.928401980936727     
   2318.5181819944100        22.515710337480684       -69.296231033392885     
   2319.3368951275156        24.689962832336381       -68.579009985931734     
   2319.6209869566860        26.835185182499391       -67.777940903855452     
   2319.3726614177021        28.947800891001869       -66.894420938779120     
   2318.5953231157464        31.024320144186902       -65.930036304999163     
   2317.2935480560250        33.061351282117876       -64.886555352425901     
   2315.4730488783880        35.055611612392340       -63.765920802197542     
   2313.1406349794088        37.003937502802991       -62.570241217630283     
   2310.3041679447501        38.903293696920485       -61.301781788607286     
   2306.9725127473989        40.750781805724827       -59.962954511808341     
   2303.1554851932324        42.543647937716209       -58.556307852320046     
   2298.8637961145023        44.279289439355047       -57.084515974137346     
   2294.1089928238089        45.955260727046507       -55.550367627892733     
   2288.9033983464792        47.569278201076628       -53.956754783871190     
   2283.2600489480324        49.119224240777882       -52.306661097050387     
   2277.1926304660151        50.603150288650994       -50.603150288614337     
   2270.7154139423683        52.019279039080686       -48.849354525222765     