 VARIABLES = "x_1", "x_2", "x_3"
 ZONE F = POINT , I =         201  , J =         101
   766.99230305537310        0.0000000000000000        0.0000000000000000     
   766.34877213158984        0.0000000000000000        0.0000000000000000     
   766.25617800508701        0.0000000000000000        0.0000000000000000     
   766.71428746465347        0.0000000000000000        0.0000000000000000     
   767.72425420650973        0.0000000000000000        0.0000000000000000     
   769.28862066712406        0.0000000000000000        0.0000000000000000     
   771.41132193347096        0.0000000000000000        0.0000000000000000     
   774.09769144082782        0.0000000000000000        0.0000000000000000     
   777.35446799264628        0.0000000000000000        0.0000000000000000     
   781.18980343849171        0.0000000000000000        0.0000000000000000     
   785.61327011503283        0.0000000000000000        0.0000000000000000     
   790.63586688088867        0.0000000000000000        0.0000000000000000     
   796.27002224646378        0.0000000000000000        0.0000000000000000     
   802.52959270038752        0.0000000000000000        0.0000000000000000     
   809.42985384804763        0.0000000000000000        0.0000000000000000     
   816.98748138533097        0.0000000000000000        0.0000000000000000     
   825.22051820923127        0.0000000000000000        0.0000000000000000     
   834.14832309000724        0.0000000000000000        0.0000000000000000     
   843.79149526699359        0.0000000000000000        0.0000000000000000     
   854.17176804830592        0.0000000000000000        0.0000000000000000     
   865.31186295700047        0.0000000000000000        0.0000000000000000     
   877.23529413476808        0.0000000000000000        0.0000000000000000     
   889.96611055228539        0.0000000000000000        0.0000000000000000     
   903.52856105212220        0.0000000000000000        0.0000000000000000     
   917.94666434814451        0.0000000000000000        0.0000000000000000     
   933.24366283176676        0.0000000000000000        0.0000000000000000     
   949.44133543882322        0.0000000000000000        0.0000000000000000     
   966.55914102563997        0.0000000000000000        0.0000000000000000     
   984.61315990331241        0.0000000000000000        0.0000000000000000     
   1003.6147977453547        0.0000000000000000        0.0000000000000000     
   1023.5692135817621        0.0000000000000000        0.0000000000000000     
   1044.4734328683235        0.0000000000000000        0.0000000000000000     
   1066.3141088853827        0.0000000000000000        0.0000000000000000     
   1089.0649026392030        0.0000000000000000        0.0000000000000000     
   1112.6834651954484        0.0000000000000000        0.0000000000000000     
   1137.1080296818222        0.0000000000000000        0.0000000000000000     
   1162.2536561900010        0.0000000000000000        0.0000000000000000     
   1188.0082247207313        0.0000000000000000        0.0000000000000000     
   1214.2283418361646        0.0000000000000000        0.0000000000000000     
   1240.7354168387562        0.0000000000000000        0.0000000000000000     
   1267.3122708010694        0.0000000000000000        0.0000000000000000     
   1293.7007588623305        0.0000000000000000        0.0000000000000000     
   1319.6009972873758        0.0000000000000000        0.0000000000000000     
   1344.6728666254130        0.0000000000000000        0.0000000000000000     
   1368.5404761344532        0.0000000000000000        0.0000000000000000     
   1390.8001818252214        0.0000000000000000        0.0000000000000000     
   1411.0325134927627        0.0000000000000000        0.0000000000000000     
   1428.8179650802099        0.0000000000000000        0.0000000000000000     
   1443.7560532842856        0.0000000000000000        0.0000000000000000     
   1455.4864174362340        0.0000000000000000        0.0000000000000000     
   1463.7101382400990       -0.0000000000000000        0.0000000000000000     
   1468.2090472098323       -0.0000000000000000        0.0000000000000000     
   1468.8607289017100       -0.0000000000000000        0.0000000000000000     
   1465.6472694428080       -0.0000000000000000        0.0000000000000000     
   1458.6565565323685       -0.0000000000000000        0.0000000000000000     
   1448.0759497799440       -0.0000000000000000        0.0000000000000000     
   1434.1791946339363       -0.0000000000000000        0.0000000000000000     
   1417.3083136646380       -0.0000000000000000        0.0000000000000000     
   1397.8527033646767       -0.0000000000000000        0.0000000000000000     
   1376.2277316095565       -0.0000000000000000        0.0000000000000000     
   1352.8548237646207       -0.0000000000000000        0.0000000000000000     
   1328.1444759714093       -0.0000000000000000        0.0000000000000000     
   1302.4829989271184       -0.0000000000000000        0.0000000000000000     
   1276.2232081935233       -0.0000000000000000        0.0000000000000000     
   1249.6788221143181       -0.0000000000000000        0.0000000000000000     
   1223.1220370867009       -0.0000000000000000        0.0000000000000000     
   1196.7836122886156       -0.0000000000000000        0.0000000000000000     
   1170.8547785450760       -0.0000000000000000        0.0000000000000000     
   1145.4903479485295       -0.0000000000000000        0.0000000000000000     
   1120.8125047398448       -0.0000000000000000        0.0000000000000000     
   1096.9148752197657       -0.0000000000000000        0.0000000000000000     
   1073.8665863985282       -0.0000000000000000        0.0000000000000000     
   1051.7161195609281       -0.0000000000000000        0.0000000000000000     
   1030.4948420588785       -0.0000000000000000        0.0000000000000000     
   1010.2201585702235       -0.0000000000000000        0.0000000000000000     
   990.89826405954739       -0.0000000000000000        0.0000000000000000     
   972.52650788699850       -0.0000000000000000        0.0000000000000000     
   955.09539515244489       -0.0000000000000000        0.0000000000000000     
   938.59026031030521       -0.0000000000000000        0.0000000000000000     
   922.99265171051684       -0.0000000000000000        0.0000000000000000     
   908.28146584642457       -0.0000000000000000        0.0000000000000000     
   894.43386807551462       -0.0000000000000000        0.0000000000000000     
   881.42603338300682       -0.0000000000000000        0.0000000000000000     
   869.23373703272478       -0.0000000000000000        0.0000000000000000     
   857.83282111627841       -0.0000000000000000        0.0000000000000000     
   847.19955932792072       -0.0000000000000000        0.0000000000000000     
   837.31093890211184       -0.0000000000000000        0.0000000000000000     
   828.14487562141051       -0.0000000000000000        0.0000000000000000     
   819.68037515270964       -0.0000000000000000        0.0000000000000000     
   811.89765168932979       -0.0000000000000000        0.0000000000000000     
   804.77821293775310       -0.0000000000000000        0.0000000000000000     
   798.30491885553454       -0.0000000000000000        0.0000000000000000     
   792.46202018320412       -0.0000000000000000        0.0000000000000000     
   787.23518168055932       -0.0000000000000000        0.0000000000000000     
   782.61149404188791       -0.0000000000000000        0.0000000000000000     
   778.57947769402415       -0.0000000000000000        0.0000000000000000     
   775.12908104807229       -0.0000000000000000        0.0000000000000000     
   772.25167525611630       -0.0000000000000000        0.0000000000000000     
   769.94004709758315       -0.0000000000000000        0.0000000000000000     
   768.18839126848331       -0.0000000000000000        0.0000000000000000     
   766.99230305536707       -0.0000000000000000       -0.0000000000000000     
   766.34877213158734       -0.0000000000000000       -0.0000000000000000     
   766.25617800508826       -0.0000000000000000       -0.0000000000000000     
   766.71428746465847       -0.0000000000000000       -0.0000000000000000     
   767.72425420651837       -0.0000000000000000       -0.0000000000000000     
   769.28862066713600       -0.0000000000000000       -0.0000000000000000     
   771.41132193348676       -0.0000000000000000       -0.0000000000000000     
   774.09769144084748       -0.0000000000000000       -0.0000000000000000     
   777.35446799266970       -0.0000000000000000       -0.0000000000000000     
   781.18980343851888       -0.0000000000000000       -0.0000000000000000     
   785.61327011506376       -0.0000000000000000       -0.0000000000000000     
   790.63586688092391       -0.0000000000000000       -0.0000000000000000     
   796.27002224650278       -0.0000000000000000       -0.0000000000000000     
   802.52959270043073       -0.0000000000000000       -0.0000000000000000     
   809.42985384809526       -0.0000000000000000       -0.0000000000000000     
   816.98748138538303       -0.0000000000000000       -0.0000000000000000     
   825.22051820928777       -0.0000000000000000       -0.0000000000000000     
   834.14832309006840       -0.0000000000000000       -0.0000000000000000     
   843.79149526705953       -0.0000000000000000       -0.0000000000000000     
   854.17176804837698       -0.0000000000000000       -0.0000000000000000     
   865.31186295707619       -0.0000000000000000       -0.0000000000000000     
   877.23529413484914       -0.0000000000000000       -0.0000000000000000     
   889.96611055237202       -0.0000000000000000       -0.0000000000000000     
   903.52856105221440       -0.0000000000000000       -0.0000000000000000     
   917.94666434824239       -0.0000000000000000       -0.0000000000000000     
   933.24366283187044       -0.0000000000000000       -0.0000000000000000     
   949.44133543893315       -0.0000000000000000       -0.0000000000000000     
   966.55914102575559       -0.0000000000000000       -0.0000000000000000     
   984.61315990343428       -0.0000000000000000       -0.0000000000000000     
   1003.6147977454833       -0.0000000000000000       -0.0000000000000000     
   1023.5692135818967       -0.0000000000000000       -0.0000000000000000     
   1044.4734328684644       -0.0000000000000000       -0.0000000000000000     
   1066.3141088855295       -0.0000000000000000       -0.0000000000000000     
   1089.0649026393562       -0.0000000000000000       -0.0000000000000000     
   1112.6834651956067       -0.0000000000000000       -0.0000000000000000     
   1137.1080296819857       -0.0000000000000000       -0.0000000000000000     
   1162.2536561901686       -0.0000000000000000       -0.0000000000000000     
   1188.0082247209027       -0.0000000000000000       -0.0000000000000000     
   1214.2283418363384       -0.0000000000000000       -0.0000000000000000     
   1240.7354168389315       -0.0000000000000000       -0.0000000000000000     
   1267.3122708012440       -0.0000000000000000       -0.0000000000000000     
   1293.7007588625031       -0.0000000000000000       -0.0000000000000000     
   1319.6009972875434       -0.0000000000000000       -0.0000000000000000     
   1344.6728666255749       -0.0000000000000000       -0.0000000000000000     
   1368.5404761346051       -0.0000000000000000       -0.0000000000000000     
   1390.8001818253617       -0.0000000000000000       -0.0000000000000000     
   1411.0325134928885       -0.0000000000000000       -0.0000000000000000     
   1428.8179650803179       -0.0000000000000000       -0.0000000000000000     
   1443.7560532843738       -0.0000000000000000       -0.0000000000000000     
   1455.4864174362999       -0.0000000000000000       -0.0000000000000000     
   1463.7101382401413        0.0000000000000000       -0.0000000000000000     
   1468.2090472098494        0.0000000000000000       -0.0000000000000000     
   1468.8607289017011        0.0000000000000000       -0.0000000000000000     
   1465.6472694427741        0.0000000000000000       -0.0000000000000000     
   1458.6565565323101        0.0000000000000000       -0.0000000000000000     
   1448.0759497798635        0.0000000000000000       -0.0000000000000000     
   1434.1791946338346        0.0000000000000000       -0.0000000000000000     
   1417.3083136645182        0.0000000000000000       -0.0000000000000000     
   1397.8527033645403        0.0000000000000000       -0.0000000000000000     
   1376.2277316094080        0.0000000000000000       -0.0000000000000000     
   1352.8548237644625        0.0000000000000000       -0.0000000000000000     
   1328.1444759712429        0.0000000000000000       -0.0000000000000000     
   1302.4829989269469        0.0000000000000000       -0.0000000000000000     
   1276.2232081933487        0.0000000000000000       -0.0000000000000000     
   1249.6788221141433        0.0000000000000000       -0.0000000000000000     
   1223.1220370865258        0.0000000000000000       -0.0000000000000000     
   1196.7836122884432        0.0000000000000000       -0.0000000000000000     
   1170.8547785449066        0.0000000000000000       -0.0000000000000000     
   1145.4903479483648        0.0000000000000000       -0.0000000000000000     
   1120.8125047396843        0.0000000000000000       -0.0000000000000000     
   1096.9148752196111        0.0000000000000000       -0.0000000000000000     
   1073.8665863983790        0.0000000000000000       -0.0000000000000000     
   1051.7161195607855        0.0000000000000000       -0.0000000000000000     
   1030.4948420587418        0.0000000000000000       -0.0000000000000000     
   1010.2201585700936        0.0000000000000000       -0.0000000000000000     
   990.89826405942335        0.0000000000000000       -0.0000000000000000     
   972.52650788688038        0.0000000000000000       -0.0000000000000000     
   955.09539515233303        0.0000000000000000       -0.0000000000000000     
   938.59026031019948        0.0000000000000000       -0.0000000000000000     
   922.99265171041702        0.0000000000000000       -0.0000000000000000     
   908.28146584633032        0.0000000000000000       -0.0000000000000000     
   894.43386807542640        0.0000000000000000       -0.0000000000000000     
   881.42603338292349        0.0000000000000000       -0.0000000000000000     
   869.23373703264713        0.0000000000000000       -0.0000000000000000     
   857.83282111620565        0.0000000000000000       -0.0000000000000000     
   847.19955932785285        0.0000000000000000       -0.0000000000000000     
   837.31093890204886        0.0000000000000000       -0.0000000000000000     
   828.14487562135241        0.0000000000000000       -0.0000000000000000     
   819.68037515265621        0.0000000000000000       -0.0000000000000000     
   811.89765168928091        0.0000000000000000       -0.0000000000000000     
   804.77821293770830        0.0000000000000000       -0.0000000000000000     
   798.30491885549418        0.0000000000000000       -0.0000000000000000     
   792.46202018316785        0.0000000000000000       -0.0000000000000000     
   787.23518168052681        0.0000000000000000       -0.0000000000000000     
   782.61149404185926        0.0000000000000000       -0.0000000000000000     
   778.57947769399925        0.0000000000000000       -0.0000000000000000     
   775.12908104805115        0.0000000000000000       -0.0000000000000000     
   772.25167525609925        0.0000000000000000       -0.0000000000000000     
   769.94004709756973        0.0000000000000000       -0.0000000000000000     
   768.18839126847342        0.0000000000000000       -0.0000000000000000     
   766.99230305536094        0.0000000000000000        0.0000000000000000     
   722.95177294644941        22.719674753129006        0.0000000000000000     
   724.52795480022644        22.757973033600432       0.71519811516138565     
   726.51163476942907        22.786495073410681        1.4336047554206572     
   728.90737932403169        22.805175869170565        2.1557238145749347     
   731.72085190759310        22.813929714103995        2.8820695606961482     
   734.95886569757511        22.812650288923908        3.6131688483308264     
   738.62944138656235        22.801210525339350        4.3495635306421407     
   742.74187058544067        22.779462229686064        5.0918130744905232     
   747.30678546081799        22.747235451683881        5.8404973830024778     
   752.33623523455276        22.704337580549591        6.5962198314578551     
   757.84377019143028        22.650552147593544        7.3596105233042159     
   763.84453385955271        22.585637310951959        8.1313297737293624     
   770.35536404401773        22.509323994198223        8.9120718284063205     
   777.39490340434872        22.421313646170290        9.7025688246481288     
   784.98372026497873        22.321275584375577        10.503595001103063     
   793.14444032955976        22.208843878711200        11.315971160052785     
   801.90188992537514        22.083613725882905        12.140569383033196     
   811.28325132233601        21.945137257736665        12.978317995461614     
   821.31823053682933        21.792918718652352        13.830206768669008     
   832.03923782382969        21.626408938121305        14.697292337465107     
   843.48158075444519        21.444999014595886        15.580703797138325     
   855.68366933474272        21.248013115661077        16.481648424333226     
   868.68723199805811        21.034700287610605        17.401417439881033     
   882.53754043441938        20.804225154802960        18.341391696185998     
   897.28364002447267        20.555657376094942        19.303047124323452     
   912.97858101227882        20.287959712837317        20.287959712839420     
   929.67964333818975        19.999974551402577        21.297809706494384     
   947.44854507186562        19.690408714612506        22.334384602568726     
   966.35162039170018        19.357816393204356        23.399580376741913     
   986.45994773362747        19.000580034289872        24.495400179619974     
   1007.8494016728988        18.616889044027332        25.623949495620433     
   1030.6005927910107        18.204716204284519        26.787426431792088     
   1054.7986475726048        17.761791779179337        27.988105385254716     
   1080.5327644879519        17.285575413001666        29.228311800498222     
   1107.8954619184678        16.773226118494296        30.510385044664616     
   1136.9814074378494        16.221570954635126        31.836625571369801     
   1167.8856851108740        15.627073437710102        33.209221485011980     
   1200.7013170286928        14.985803373931136        34.630148341053143     
   1235.5158069195420        14.293410717091223        36.101034530236987     
   1272.4064182150564        13.545107327580645        37.622982950111471     
   1311.4338395770662        12.735662238046192        39.196338005070352     
   1352.6338348116592        11.859418313276803        40.820385580476064     
   1396.0064351827893        10.910341094131422        42.492973021231300     
   1441.5022344797005        9.8821141167688005        44.210037167363154     
   1489.0054294410274        8.7682988924236795        45.965032488179027     
   1538.3134675678275        7.5625814714198238        47.748260220059137     
   1589.1135980517365        6.2591299912932881        49.546115624784882     
   1640.9573594447270        4.8530869062317068        51.340296774950360     
   1693.2351588360343        3.3412128031771773        53.107056733080725     
   1745.1546181064257        1.7226820376791969        54.816631263427702     
   1795.7281497012334       -5.8358273634853101E-012   56.433030574049376     
   1843.7768803115794       -1.8200343283440512        57.914431381293632     
   1887.9588166301373       -3.7254554614569240        59.214418895848404     
   1926.8279870475983       -5.6985415377802520        60.284272543666937     
   1958.9271614762647       -7.7157352137742077        61.076333222511529     
   1982.9093137700834       -9.7482818372204321        61.548229215184364     
   1997.6734410328711       -11.763689691196971        61.667420952464269     
   2002.4917836444706       -13.727937321600827        61.415261152343355     
   1997.1020616247279       -15.608140580873036        60.789694006065766     
   1981.7431368884959       -17.375227681714204        59.805925955201019     
   1957.1251849338382       -19.006132494602451        58.494861083984858     
   1924.3416383196275       -20.485132464634628        56.899644337102750     
   1884.7435218747416       -21.804183405563741        55.071080906264633     
   1839.8025721921058       -22.962346424308937        53.062851759773267     
   1790.9868891308658       -23.964574614834206        50.927313380202293     
   1739.6646035889169       -24.820188456721834        48.712362613763752     
   1687.0413523472903       -25.541332234705543        46.459510861476588     
   1634.1295334128160       -26.141612927226777        44.203053433202200     
   1581.7427911783911       -26.635022873599066        41.970080293276752     
   1530.5077443674384       -27.035166998324630        39.781040193753171     
   1480.8856127641384       -27.354764604684473        37.650603440621040     
   1433.1980321554674       -27.605372095976143        35.588631261657909     
   1387.6531723911226       -27.797268366677358        33.601125363912423     
   1344.3698540451087       -27.939450672490594        31.691086048435125     
   1303.3985375029304       -28.039699231014517        29.859246916259529     
   1264.7388407582484       -28.104679761620979        28.104679761612246     
   1228.3537061439708       -28.140062733639180        26.425277824504306     
   1194.1805738233663       -28.150645604365408        24.818132551827652     
   1162.1400115538750       -28.140469820252772        23.279821228772580     
   1132.1422563671986       -28.112928146438215        21.806622358794733     
   1104.0920853867303       -28.070860376070314        20.394673860908544     
   1077.8923757188588       -28.016637015282335        19.040086854190310     
   1053.4466520670283       -27.952231436444098        17.739025478980960     
   1030.6608632046293       -27.879281462226579        16.487761094956173     
   1009.4445781541062       -27.799141543012382        15.282707390230071     
   989.71175083395258       -27.712926727528238        14.120441447643861     
   971.38116773675597       -27.621549572018736        12.997714620319572     
   954.37666598513999       -27.525751031983589        11.911456128415386     
   938.62718778142334       -27.426126260256286        10.858771559252382     
   924.06672074056780       -27.323146112355655        9.8369378927145430     
   910.63416090658325       -27.217175043592228        8.8433962474762158     
   898.27312557895755       -27.108485976782614        7.8757432215903496     
   886.93173574443097       -26.997272626274203        6.9317214593719427     
   876.56238238133835       -26.883659683385655        6.0092098964256460     
   867.12148675356889       -26.767711199541491        5.1062140013473307     
   858.56926170785403       -26.649437445143981        4.2208562347074983     
   850.86947867568915       -26.528800473264955        3.3513668747030279     
   843.98924336337677       -26.405718576261098        2.4960753077390940     
   837.89878184022791       -26.280069789217940        1.6534018461859910     
   832.57123779142955       -26.151694565647546       0.82185011089913951     
   827.98248100129274       -26.020397727182274       -5.3816195061793998E-012
   824.11092660819259       -25.885949769344538      -0.81349874424165780     
   820.93736427387853       -25.748087589184994       -1.6199323630968547     
   818.44479609829727       -25.606514687144397       -2.4205282974416935     
   816.61828185686250       -25.460900884490723       -3.2164597834212398     
   815.44478991720894       -25.310881588794032       -4.0088498145673954     
   814.91305198893804       -25.156056632897563       -4.7987744503189793     
   815.01341965854624       -24.995988707576977       -5.5872654423473520     
   815.73772045149894       -24.830201404483354       -6.3753121398186821     
   817.07911093547148       -24.658176884049077       -7.1638626228684137     
   819.03192412651208       -24.479353182891643       -7.9538240001693419     
   821.59150817855232       -24.293121177050050       -8.7460617915839851     
   824.75405302394188       -24.098821221399003       -9.5413983005672378     
   828.51640128861482       -23.895739492164441       -10.340609863344067     
   832.87583943378854       -23.683104069078539       -11.144422843147714     
   837.82986468470745       -23.460080806934656       -11.953508218336031     
   843.37592290999089       -23.225769063825680       -12.768474593600343     
   849.51111223450607       -22.979197375972287       -13.589859444640570     
   856.23184683666307       -22.719319197668533       -14.418118389913458     
   863.53347514333655       -22.445008860457524       -15.253612270218284     
   871.40984655474688       -22.155057949170757       -16.096591810504197     
   879.85282099094297       -21.848172344808923       -16.947179641757831     
   888.85171605912251       -21.522970246062734       -17.805349478577170     
   898.39268763336429       -21.177981552772859       -18.670902285658777     
   908.45804128261091       -20.811649075258650       -19.543439330816735     
   919.02547447632446       -20.422332121493934       -20.422332121504500     
   930.06725306301507       -20.008313106176608       -21.306689365442196     
   941.54933039060745       -19.567807916101852       -22.195321293826709     
   953.43042384554610       -19.098980846134861       -23.086701947439920     
   965.66107170867156       -18.599964976934228       -23.978930359751153     
   978.18270313670848       -18.068888882456267       -24.869691980829462     
   990.92676567669184       -17.503910510583562       -25.756222168450247     
   1003.8139676301697       -16.903258948145243       -26.635274114051892     
   1016.7537060441331       -16.265284533595089       -27.503094141394765     
   1029.6437638644056       -15.588517388529286       -28.355407864876870     
   1042.3703700240706       -14.871733880373185       -29.187421148717462     
   1054.8087215581475       -14.114029793039334       -29.993840069394050     
   1066.8240643818306       -13.314898082196800       -30.768914033321149     
   1078.2734161258225       -12.474308070914876       -31.506505712502825     
   1089.0079877200660       -11.592781884065703       -32.200190417151319     
   1098.8763186578979       -10.671462954104516       -32.843385851455402     
   1107.7280843780611       -9.7121707234419770       -33.429510898589520     
   1115.4184660147569       -8.7174354073164331       -33.952169265999608     
   1121.8128991322440       -7.6905070430773073       -34.405350737015887     
   1126.7919482873260       -6.6353341611776120       -34.783639794980878     
   1130.2559997099988       -5.5565092951251058       -35.082418978470216     
   1132.1294365580859       -4.4591810925680324       -35.298052974123976     
   1132.3639691789770       -3.3489357418516992       -35.428039552827130     
   1130.9408407124542       -2.2316534102738173       -35.471115205735657     
   1127.8717135137929       -1.1133479644182407       -35.427306664220161     
   1123.1981544706132        1.0966314908280634E-011  -35.297924021796831     
   1116.9897619121164        1.1026061411284922       -35.085496304159335     
   1109.3410954792314        2.1890312470703459       -34.793655321007243     
   1100.3676662844844        3.2543075434430353       -34.426977778215473     
   1090.2013058683167        4.2940364354667730       -33.990798405515690     
   1078.9852535953155        5.3044545593804182       -33.491008008743592     
   1066.8692851152452        6.2824678715704083       -32.933849925159663     
   1054.0051570234598        7.2256559804414167       -32.325726628800098     
   1040.5425759644363        8.1322507838367972       -31.673025634803121     
   1026.6258259251063        9.0010946107759668       -30.981970864988511     
   1012.3911156645050        9.8315835025855556       -30.258502690237286     
   997.96464657559306        10.623601117931781       -29.508187278395219     
   983.46135393787893        11.377448169832133       -28.736153838597726     
   968.98424267158305        12.093771471045043       -27.947056930772117     
   954.62422126806462        12.773495729395579       -27.145060174303264     
   940.46033209132247        13.417760314506655       -26.333837353578605     
   926.56027968319245        14.027862391133178       -25.516586963238527     
   912.98116803971709        14.605207125107855       -24.696056542151172     
   899.77037043027599        15.151265130502537       -23.874573605188683     
   886.96646914487451        15.667536935701053       -23.054080509825670     
   874.60021611656850        16.155523984344477       -22.236171127773723     
   862.69547774965577        16.616705531603859       -21.422127689187985     
   851.27013799610427        17.052520722917691       -20.612956605049320     
   840.33694258599348        17.464355128920229       -19.809422442072385     
   829.90427436842185        17.853531037721218       -19.012079523041038     
   819.97685512038777        18.221300858672191       -18.221300858658992     
   810.55637315900174        18.568843058610373       -17.437304292737661     