 VARIABLES = "x_1", "x_2", "x_3"
 ZONE F = POINT , I =         201  , J =         101
   4610.2984357531950        0.0000000000000000        0.0000000000000000     
   4610.2984357531950        0.0000000000000000        0.0000000000000000     
   4610.2984357531950        0.0000000000000000        0.0000000000000000     
   4610.2984357531950        0.0000000000000000        0.0000000000000000     
   4610.2984357531950        0.0000000000000000        0.0000000000000000     
   4610.2984357531950        0.0000000000000000        0.0000000000000000     
   4610.2984357531950        0.0000000000000000        0.0000000000000000     
   4610.2984357531950        0.0000000000000000        0.0000000000000000     
   4610.2984357531950        0.0000000000000000        0.0000000000000000     
   4610.2984357531950        0.0000000000000000        0.0000000000000000     
   4610.2984357531950        0.0000000000000000        0.0000000000000000     
   4610.2984357531950        0.0000000000000000        0.0000000000000000     
   4610.2984357531950        0.0000000000000000        0.0000000000000000     
   4610.2984357531950        0.0000000000000000        0.0000000000000000     
   4610.2984357531950        0.0000000000000000        0.0000000000000000     
   4610.2984357531950        0.0000000000000000        0.0000000000000000     
   4610.2984357531950        0.0000000000000000        0.0000000000000000     
   4610.2984357531950        0.0000000000000000        0.0000000000000000     
   4610.2984357531950        0.0000000000000000        0.0000000000000000     
   4610.2984357531950        0.0000000000000000        0.0000000000000000     
   4610.2984357531950        0.0000000000000000        0.0000000000000000     
   4610.2984357531950        0.0000000000000000        0.0000000000000000     
   4610.2984357531950        0.0000000000000000        0.0000000000000000     
   4610.2984357531950        0.0000000000000000        0.0000000000000000     
   4610.2984357531950        0.0000000000000000        0.0000000000000000     
   4610.2984357531950        0.0000000000000000        0.0000000000000000     
   4610.2984357531950        0.0000000000000000        0.0000000000000000     
   4610.2984357531950        0.0000000000000000        0.0000000000000000     
   4610.2984357531950        0.0000000000000000        0.0000000000000000     
   4610.2984357531950        0.0000000000000000        0.0000000000000000     
   4610.2984357531950        0.0000000000000000        0.0000000000000000     
   4610.2984357531950        0.0000000000000000        0.0000000000000000     
   4610.2984357531950        0.0000000000000000        0.0000000000000000     
   4610.2984357531950        0.0000000000000000        0.0000000000000000     
   4610.2984357531950        0.0000000000000000        0.0000000000000000     
   4610.2984357531950        0.0000000000000000        0.0000000000000000     
   4610.2984357531950        0.0000000000000000        0.0000000000000000     
   4610.2984357531950        0.0000000000000000        0.0000000000000000     
   4610.2984357531950        0.0000000000000000        0.0000000000000000     
   4610.2984357531950        0.0000000000000000        0.0000000000000000     
   4610.2984357531950        0.0000000000000000        0.0000000000000000     
   4610.2984357531950        0.0000000000000000        0.0000000000000000     
   4610.2984357531950        0.0000000000000000        0.0000000000000000     
   4610.2984357531950        0.0000000000000000        0.0000000000000000     
   4610.2984357531950        0.0000000000000000        0.0000000000000000     
   4610.2984357531950        0.0000000000000000        0.0000000000000000     
   4610.2984357531950        0.0000000000000000        0.0000000000000000     
   4610.2984357531950        0.0000000000000000        0.0000000000000000     
   4610.2984357531950        0.0000000000000000        0.0000000000000000     
   4610.2984357531950        0.0000000000000000        0.0000000000000000     
   4610.2984357531950       -0.0000000000000000        0.0000000000000000     
   4610.2984357531950       -0.0000000000000000        0.0000000000000000     
   4610.2984357531950       -0.0000000000000000        0.0000000000000000     
   4610.2984357531950       -0.0000000000000000        0.0000000000000000     
   4610.2984357531950       -0.0000000000000000        0.0000000000000000     
   4610.2984357531950       -0.0000000000000000        0.0000000000000000     
   4610.2984357531950       -0.0000000000000000        0.0000000000000000     
   4610.2984357531950       -0.0000000000000000        0.0000000000000000     
   4610.2984357531950       -0.0000000000000000        0.0000000000000000     
   4610.2984357531950       -0.0000000000000000        0.0000000000000000     
   4610.2984357531950       -0.0000000000000000        0.0000000000000000     
   4610.2984357531950       -0.0000000000000000        0.0000000000000000     
   4610.2984357531950       -0.0000000000000000        0.0000000000000000     
   4610.2984357531950       -0.0000000000000000        0.0000000000000000     
   4610.2984357531950       -0.0000000000000000        0.0000000000000000     
   4610.2984357531950       -0.0000000000000000        0.0000000000000000     
   4610.2984357531950       -0.0000000000000000        0.0000000000000000     
   4610.2984357531950       -0.0000000000000000        0.0000000000000000     
   4610.2984357531950       -0.0000000000000000        0.0000000000000000     
   4610.2984357531950       -0.0000000000000000        0.0000000000000000     
   4610.2984357531950       -0.0000000000000000        0.0000000000000000     
   4610.2984357531950       -0.0000000000000000        0.0000000000000000     
   4610.2984357531950       -0.0000000000000000        0.0000000000000000     
   4610.2984357531950       -0.0000000000000000        0.0000000000000000     
   4610.2984357531950       -0.0000000000000000        0.0000000000000000     
   4610.2984357531950       -0.0000000000000000        0.0000000000000000     
   4610.2984357531950       -0.0000000000000000        0.0000000000000000     
   4610.2984357531950       -0.0000000000000000        0.0000000000000000     
   4610.2984357531950       -0.0000000000000000        0.0000000000000000     
   4610.2984357531950       -0.0000000000000000        0.0000000000000000     
   4610.2984357531950       -0.0000000000000000        0.0000000000000000     
   4610.2984357531950       -0.0000000000000000        0.0000000000000000     
   4610.2984357531950       -0.0000000000000000        0.0000000000000000     
   4610.2984357531950       -0.0000000000000000        0.0000000000000000     
   4610.2984357531950       -0.0000000000000000        0.0000000000000000     
   4610.2984357531950       -0.0000000000000000        0.0000000000000000     
   4610.2984357531950       -0.0000000000000000        0.0000000000000000     
   4610.2984357531950       -0.0000000000000000        0.0000000000000000     
   4610.2984357531950       -0.0000000000000000        0.0000000000000000     
   4610.2984357531950       -0.0000000000000000        0.0000000000000000     
   4610.2984357531950       -0.0000000000000000        0.0000000000000000     
   4610.2984357531950       -0.0000000000000000        0.0000000000000000     
   4610.2984357531950       -0.0000000000000000        0.0000000000000000     
   4610.2984357531950       -0.0000000000000000        0.0000000000000000     
   4610.2984357531950       -0.0000000000000000        0.0000000000000000     
   4610.2984357531950       -0.0000000000000000        0.0000000000000000     
   4610.2984357531950       -0.0000000000000000        0.0000000000000000     
   4610.2984357531950       -0.0000000000000000        0.0000000000000000     
   4610.2984357531950       -0.0000000000000000        0.0000000000000000     
   4610.2984357531950       -0.0000000000000000        0.0000000000000000     
   4610.2984357531950       -0.0000000000000000       -0.0000000000000000     
   4610.2984357531950       -0.0000000000000000       -0.0000000000000000     
   4610.2984357531950       -0.0000000000000000       -0.0000000000000000     
   4610.2984357531950       -0.0000000000000000       -0.0000000000000000     
   4610.2984357531950       -0.0000000000000000       -0.0000000000000000     
   4610.2984357531950       -0.0000000000000000       -0.0000000000000000     
   4610.2984357531950       -0.0000000000000000       -0.0000000000000000     
   4610.2984357531950       -0.0000000000000000       -0.0000000000000000     
   4610.2984357531950       -0.0000000000000000       -0.0000000000000000     
   4610.2984357531950       -0.0000000000000000       -0.0000000000000000     
   4610.2984357531950       -0.0000000000000000       -0.0000000000000000     
   4610.2984357531950       -0.0000000000000000       -0.0000000000000000     
   4610.2984357531950       -0.0000000000000000       -0.0000000000000000     
   4610.2984357531950       -0.0000000000000000       -0.0000000000000000     
   4610.2984357531950       -0.0000000000000000       -0.0000000000000000     
   4610.2984357531950       -0.0000000000000000       -0.0000000000000000     
   4610.2984357531950       -0.0000000000000000       -0.0000000000000000     
   4610.2984357531950       -0.0000000000000000       -0.0000000000000000     
   4610.2984357531950       -0.0000000000000000       -0.0000000000000000     
   4610.2984357531950       -0.0000000000000000       -0.0000000000000000     
   4610.2984357531950       -0.0000000000000000       -0.0000000000000000     
   4610.2984357531950       -0.0000000000000000       -0.0000000000000000     
   4610.2984357531950       -0.0000000000000000       -0.0000000000000000     
   4610.2984357531950       -0.0000000000000000       -0.0000000000000000     
   4610.2984357531950       -0.0000000000000000       -0.0000000000000000     
   4610.2984357531950       -0.0000000000000000       -0.0000000000000000     
   4610.2984357531950       -0.0000000000000000       -0.0000000000000000     
   4610.2984357531950       -0.0000000000000000       -0.0000000000000000     
   4610.2984357531950       -0.0000000000000000       -0.0000000000000000     
   4610.2984357531950       -0.0000000000000000       -0.0000000000000000     
   4610.2984357531950       -0.0000000000000000       -0.0000000000000000     
   4610.2984357531950       -0.0000000000000000       -0.0000000000000000     
   4610.2984357531950       -0.0000000000000000       -0.0000000000000000     
   4610.2984357531950       -0.0000000000000000       -0.0000000000000000     
   4610.2984357531950       -0.0000000000000000       -0.0000000000000000     
   4610.2984357531950       -0.0000000000000000       -0.0000000000000000     
   4610.2984357531950       -0.0000000000000000       -0.0000000000000000     
   4610.2984357531950       -0.0000000000000000       -0.0000000000000000     
   4610.2984357531950       -0.0000000000000000       -0.0000000000000000     
   4610.2984357531950       -0.0000000000000000       -0.0000000000000000     
   4610.2984357531950       -0.0000000000000000       -0.0000000000000000     
   4610.2984357531950       -0.0000000000000000       -0.0000000000000000     
   4610.2984357531950       -0.0000000000000000       -0.0000000000000000     
   4610.2984357531950       -0.0000000000000000       -0.0000000000000000     
   4610.2984357531950       -0.0000000000000000       -0.0000000000000000     
   4610.2984357531950       -0.0000000000000000       -0.0000000000000000     
   4610.2984357531950       -0.0000000000000000       -0.0000000000000000     
   4610.2984357531950       -0.0000000000000000       -0.0000000000000000     
   4610.2984357531950       -0.0000000000000000       -0.0000000000000000     
   4610.2984357531950       -0.0000000000000000       -0.0000000000000000     
   4610.2984357531950        0.0000000000000000       -0.0000000000000000     
   4610.2984357531950        0.0000000000000000       -0.0000000000000000     
   4610.2984357531950        0.0000000000000000       -0.0000000000000000     
   4610.2984357531950        0.0000000000000000       -0.0000000000000000     
   4610.2984357531950        0.0000000000000000       -0.0000000000000000     
   4610.2984357531950        0.0000000000000000       -0.0000000000000000     
   4610.2984357531950        0.0000000000000000       -0.0000000000000000     
   4610.2984357531950        0.0000000000000000       -0.0000000000000000     
   4610.2984357531950        0.0000000000000000       -0.0000000000000000     
   4610.2984357531950        0.0000000000000000       -0.0000000000000000     
   4610.2984357531950        0.0000000000000000       -0.0000000000000000     
   4610.2984357531950        0.0000000000000000       -0.0000000000000000     
   4610.2984357531950        0.0000000000000000       -0.0000000000000000     
   4610.2984357531950        0.0000000000000000       -0.0000000000000000     
   4610.2984357531950        0.0000000000000000       -0.0000000000000000     
   4610.2984357531950        0.0000000000000000       -0.0000000000000000     
   4610.2984357531950        0.0000000000000000       -0.0000000000000000     
   4610.2984357531950        0.0000000000000000       -0.0000000000000000     
   4610.2984357531950        0.0000000000000000       -0.0000000000000000     
   4610.2984357531950        0.0000000000000000       -0.0000000000000000     
   4610.2984357531950        0.0000000000000000       -0.0000000000000000     
   4610.2984357531950        0.0000000000000000       -0.0000000000000000     
   4610.2984357531950        0.0000000000000000       -0.0000000000000000     
   4610.2984357531950        0.0000000000000000       -0.0000000000000000     
   4610.2984357531950        0.0000000000000000       -0.0000000000000000     
   4610.2984357531950        0.0000000000000000       -0.0000000000000000     
   4610.2984357531950        0.0000000000000000       -0.0000000000000000     
   4610.2984357531950        0.0000000000000000       -0.0000000000000000     
   4610.2984357531950        0.0000000000000000       -0.0000000000000000     
   4610.2984357531950        0.0000000000000000       -0.0000000000000000     
   4610.2984357531950        0.0000000000000000       -0.0000000000000000     
   4610.2984357531950        0.0000000000000000       -0.0000000000000000     
   4610.2984357531950        0.0000000000000000       -0.0000000000000000     
   4610.2984357531950        0.0000000000000000       -0.0000000000000000     
   4610.2984357531950        0.0000000000000000       -0.0000000000000000     
   4610.2984357531950        0.0000000000000000       -0.0000000000000000     
   4610.2984357531950        0.0000000000000000       -0.0000000000000000     
   4610.2984357531950        0.0000000000000000       -0.0000000000000000     
   4610.2984357531950        0.0000000000000000       -0.0000000000000000     
   4610.2984357531950        0.0000000000000000       -0.0000000000000000     
   4610.2984357531950        0.0000000000000000       -0.0000000000000000     
   4610.2984357531950        0.0000000000000000       -0.0000000000000000     
   4610.2984357531950        0.0000000000000000       -0.0000000000000000     
   4610.2984357531950        0.0000000000000000       -0.0000000000000000     
   4610.2984357531950        0.0000000000000000       -0.0000000000000000     
   4610.2984357531950        0.0000000000000000       -0.0000000000000000     
   4610.2984357531950        0.0000000000000000       -0.0000000000000000     
   4610.2984357531950        0.0000000000000000       -0.0000000000000000     
   4610.2984357531950        0.0000000000000000       -0.0000000000000000     
   4610.2984357531950        0.0000000000000000       -0.0000000000000000     
   4610.2984357531950        0.0000000000000000        0.0000000000000000     
   4614.1889803553931        145.00673047095731        0.0000000000000000     
   4615.1910006214011        144.96665262007420        4.5557605926528204     
   4616.1674532512206        144.78264613742948        9.1089520058398978     
   4617.1163541655442        144.45477361309705        13.654996453141148     
   4618.0358130323430        143.98324741063965        18.189314152039533     
   4618.9240392139700        143.36843017422740        22.707328573353887     
   4619.7793473317934        142.61083511833513        27.204471745734129     
   4620.6001624241917        141.71112609480292        31.676189603367867     
   4621.3850246754528        140.67011743290288        36.117947364575336     
   4622.1325936949470        139.48877354896229        40.525234928572914     
   4622.8416523278838        138.16820832303029        44.893572277367078     
   4623.5111099810592        136.70968424104692        49.218514869506272     
   4624.1400054491523        135.11461130196150        53.495659012267588     
   4624.7275092294421        133.38454569025049        57.720647198792996     
   4625.2729253151301        131.52118821529152        61.889173396714561     
   4625.7756924599344        129.52638252005295        65.996988274922359     
   4626.2353849090296        127.40211306254635        70.039904355329639     
   4626.6517125939927        125.15050287446037        74.013801076776573     
   4627.0245207918670        122.77381110232987        77.914629758584923     
   4627.3537892511094        120.27443033750106        81.738418451727327     
   4627.6396307895602        117.65488374200517        85.481276666100712     
   4627.8822893722299        114.91782197826291        89.139399962993437     
   4628.0821376790464        112.06601995128732        92.709074402500349     
   4628.2396741751290        109.10237337273503        96.186680836362981     
   4628.3555196985044        106.02989515677056        99.568699037492863     
   4628.4304135823731        102.85171165824671        102.85171165825737     
   4628.4652093311743        99.571058764165898        106.03240801047203     
   4628.4608698717366        96.191277849767118        109.10758766093633     
   4628.4184624026366        92.715811610882014        112.07416383726581     
   4628.3391528666853        89.148199784414828        114.92916663970500     
   4628.2242000730275        85.492074768930863        117.66974605554161     
   4628.0749494968240        81.751157157381158        120.29317477367883     
   4627.8928267857136        77.929251193951188        122.79685079784601     
   4627.6793310034409        74.030240166901493        125.17829985783627     
   4627.4360276419347        70.058081749067739        127.43517761904036     
   4627.1645414339000        66.016803297414256        129.56527169139542     
   4626.8665489986306        61.910497122688547        131.56650343967632     
   4626.5437713541114        57.743315739814165        133.43692959782075     
   4626.1979663287948        53.519467109185832        135.17474369069228     
   4625.8309209064982        49.243209878504132        136.77827726734131     
   4625.4444435377645        44.918848634211074        138.24600095041748     
   4625.0403564508315        40.550729170969340        139.57652530691973     
   4624.6204879949391        36.143233786975124        140.76860154593160     
   4624.1866650481479        31.700776612212636        141.82112204938284     
   4623.7407055211743        27.227798976055571        142.73312074219936     
   4623.2844109879188        22.728764819904768        143.50377330845313     
   4622.8195594724339        18.208156159827354        144.13239726030048     
   4622.3478984210096        13.670468603441037        144.61845186660150     
   4621.8711378868675        9.1202069245705246        144.96153794814686     
   4621.3909439537574        4.5618806985026383        145.16139754638536     
   4620.9089324233109       -1.5017210036216389E-011   145.21791347244226     
   4620.4266627896895       -4.5609288345411336        145.13110874305636     
   4619.9456325234351       -9.1164073796056293        144.90114590983768     
   4619.4672716850137       -13.661949227989481        144.52832628797060     
   4618.9929378868273       -18.193084032879490        144.01308909015378     
   4618.5239116209113       -22.705361485655281        143.35601047119479     
   4618.0613919677762       -27.194355230511444        142.55780248825658     
   4617.6064927001971       -31.655666717511910        141.61931198130134     
   4617.1602387940502       -36.084928996010682        140.54151937779392     
   4616.7235633564806       -40.477810450652363        139.32553742521924     
   4616.2973049800476       -44.830018482385960        137.97260985444325     
   4615.8822055297023       -49.137303137084722        136.48410997641022     
   4615.4789083677151       -53.395460684463892        134.86153921412387     
   4615.0879570200241       -57.600337150025801        133.10652557131976     
   4614.7097942856981       -61.747831802740315        131.22082203869459     
   4614.3447617895863       -65.833900601088487        129.20630493803517     
   4613.9930999765756       -69.854559599959870        127.06497220407870     
   4613.6549485442383       -73.805888320702422        124.79894160344980     
   4613.3303473090655       -77.684033086380296        122.41044888955958     
   4613.0192374999933       -81.485210324003219        119.90184589192597     
   4612.7214634713155       -85.205709835152717        117.27559853798138     
   4612.4367748256982       -88.841898036052783        114.53428480508553     
   4612.1648289365430       -92.390221167716788        111.68059260015418     
   4611.9051938575767       -95.847208476353856        108.71731756405573     
   4611.6573516062117       -99.209475363742627        105.64736079772052     
   4611.4207018059396       -102.47372650678210        102.47372650675027     
   4611.1945656717953       -105.63675894491239        99.199519561216533     
   4610.9781903217454       -108.69546513357106        95.827942967290227     
   4610.7707533957564       -111.64683596131606        92.362295247357352     
   4610.5713679632099       -114.48796372770953        88.805967725345582     
   4610.3790876983558       -117.21604507852619        85.162441714113129     
   4610.1929123025720       -119.82838389432787        81.435285601935050     
   4610.0117931512696       -122.32239412793909        77.628151835362033     
   4609.8346391425766       -124.69560258587330        73.744773796020198     
   4609.6603227241167       -126.94565164829955        69.788962569266744     
   4609.4876860735949       -129.07030192170873        65.764603603011707     
   4609.3155474083233       -131.06743481804705        61.675653255459466     
   4609.1427073982723       -132.93505505372767        57.526135231008546     
   4608.9679556568981       -134.67129306162542        53.320136904075326     
   4608.7900772835837       -136.27440730889413        49.061805531167792     
   4608.6078594313412       -137.74278651323863        44.755344352127182     
   4608.4200978732324       -139.07495175011630        40.405008582075816     
   4608.2256035409528       -140.26955844324488        36.015101296247209     
   4608.0232090089712       -141.32539823075257        31.589969210530533     
   4607.8117748978602       -142.24140069932938        27.133998361227569     
   4607.5901961705631       -143.01663497881879        22.651609688189886     
   4607.3574082957593       -143.65031118983723        18.147254526173164     
   4607.1123932528790       -144.14178173721405        13.625410009907101     
   4606.8541853538190       -144.49054244231456        9.0905743990281689     
   4606.5818768571216       -144.69623350764155        4.5472623296523436     
   4606.2946233510002       -144.75864030749605       -2.9939431769446259E-011
   4605.9916488825193       -144.67769399892828       -4.5466797021791159     
   4605.6722508111143       -144.45347194770960       -9.0882421212551652     
   4605.3358043656308       -144.08619796460553       -13.620155796493801     
   4604.9817668852766       -143.57624234783435       -18.137897455461069     
   4604.6096817259586       -142.92412172823271       -22.636957028833901     
   4604.2191818148531       -142.13049871433395       -27.112842676204419     
   4603.8099928374168       -141.19618133527919       -31.561085812415897     
   4603.3819360424322       -140.12212228022153       -35.977246123704639     
   4602.9349306523018       -138.90941793365252       -40.356916562758158     
   4602.4689958672579       -137.55930720685848       -44.695728311696115     
   4601.9842524539263       -136.07317016650950       -48.989355701947339     
   4601.4809239102342       -134.45252646217864       -53.233521080029362     
   4600.9593372004983       -132.69903355538494       -57.423999608339720     
   4600.4199230562044       -130.81448475353906       -61.556623990237824     
   4599.8632158398132       -128.80080705294296       -65.627289108934548     
   4599.2898529707472       -126.66005879574524       -69.631956570010317     
   4598.7005739144524       -124.39442714647620       -73.566659137748275     
   4598.0962187373361       -122.00622539448054       -77.427505055899999     
   4597.4777262320895       -119.49789008921391       -81.210682243984351     
   4596.8461316197236       -116.87197801598174       -84.912462360762703     
   4596.2025638364230       -114.13116302025755       -88.529204727122845     
   4595.5482424149313       -111.27823268922330       -92.057360101239055     
   4594.8844739720016       -108.31608489962912       -95.493474299551721     
   4594.2126483148968       -105.24772424145469       -98.834191657819716     
   4593.5342341815885       -102.07625832718459       -102.07625832723743     
   4592.8507746307341       -98.804893996769195       -105.21652540137052     
   4592.1638820989192       -95.436933428537273       -108.25195187044321     
   4591.4752331439731       -91.975770166450403       -111.17960740029757     
   4590.7865628944310       -88.424885074146744       -113.99667493414024     
   4590.0996592262954       -84.787842226207403       -116.70045311598022     
   4589.4163566893521       -81.068284746997037       -119.28835853544534     
   4588.7385302062166       -77.269930607285445       -121.75792779442968     
   4588.0680885681131       -73.396568388636780       -124.10681939677212     
   4587.4069677521356       -69.452053025284869       -126.33281546288265     
   4586.7571240853895       -65.440301532869327       -128.43382327192290     
   4586.1205272818652       -61.365288733021991       -130.40787663479185     
   4585.4991533783832       -57.231042982341584       -132.25313710177809     
   4584.8949775962046       -53.041641913808981       -133.96789500929711     
   4584.3099671550926       -48.801208198151912       -135.55057037064077     
   4583.7460740667384       -44.513905332100911       -136.99971361611958     
   4583.2052279344143       -40.183933459864193       -138.31400618837685     
   4582.6893287856374       -35.815525233521257       -139.49226099898692     
   4582.2002399643861       -31.412941717371417       -140.53342275272624     
   4581.7397811091432       -26.980468340609534       -141.43656814611583     
   4581.3097212426037       -22.522410902010744       -142.20090594698019     
   4580.9117719984797       -18.043091629629131       -142.82577696185035     
   4580.5475810101871       -13.546845297823836       -143.31065389805443     
   4580.2187254856190       -9.0380154032555815       -143.65514112729400     
   4579.9267059915210       -4.5209504008347858       -143.85897435739625     
   4579.6729404701191        4.4713513321073449E-011  -143.92202021875968     
   4579.4587585099189        4.5204884792623314       -143.84427577178761     
   4579.2853958916030        9.0361736905899086       -143.62586794131576     
   4579.1539894290554        13.542723788590084       -143.26705288370732     
   4579.0655721244866        18.035819899732417       -142.76821529190224     
   4579.0210686556375        22.511159540127792       -142.12986764327863     
   4579.0212912118513        26.964459982712668       -141.35264939471165     
   4579.0669356947410        31.391461577078239       -140.43732612870974     
   4579.1585782979600        35.787931025466598       -139.38478865396945     
   4579.2966724793569        40.149664618709117       -138.19605206312460     
   4579.4815463375689        44.472491436094082       -136.87225474988000     
   4579.7134004038116        48.752276513286048       -135.41465738711966     
   4579.9923058583154        52.984923982508043       -133.82464186696637     
   4580.3182031795395        57.166380189213690       -132.10371020315503     
   4580.6909012328933        61.292636789433779       -130.25348339546684     
   4581.1100768043298        65.359733831881456       -128.27570025536258     
   4581.5752745828249        69.363762828729335       -126.17221619136147     
   4582.0859075941971        73.300869818751565       -123.94500195212967     
   4582.6412580874121        77.167258426234753       -121.59614232469389     
   4583.2404788729955        80.959192918727936       -119.12783478466694     
   4583.8825951116542        84.673001266301227       -116.54238809488366     
   4584.5665065498151        88.305078204546646       -113.84222084839114     
   4585.2909901972071        91.851888303056484       -111.02985995133214     
   4586.0547034401052        95.309969040587447       -108.10793904089425     
   4586.8561875824053        98.675933887541021       -105.07919683319533     
   4587.6938718050742        101.94647539578888       -101.94647539571504     
   4588.5660775330907        105.11836829523190       -98.712718338694359     