 VARIABLES = "x_1", "x_2", "x_3"
 ZONE F = POINT , I =         201  , J =         101
   1415.9689257913035        0.0000000000000000        0.0000000000000000     
   1415.9378470417275        0.0000000000000000        0.0000000000000000     
   1415.9053536045974        0.0000000000000000        0.0000000000000000     
   1415.8715739954173        0.0000000000000000        0.0000000000000000     
   1415.8366417885795        0.0000000000000000        0.0000000000000000     
   1415.8006950860854        0.0000000000000000        0.0000000000000000     
   1415.7638759687231        0.0000000000000000        0.0000000000000000     
   1415.7263299319459        0.0000000000000000        0.0000000000000000     
   1415.6882053087190        0.0000000000000000        0.0000000000000000     
   1415.6496526816652        0.0000000000000000        0.0000000000000000     
   1415.6108242868645        0.0000000000000000        0.0000000000000000     
   1415.5718734116906        0.0000000000000000        0.0000000000000000     
   1415.5329537890875        0.0000000000000000        0.0000000000000000     
   1415.4942189906762        0.0000000000000000        0.0000000000000000     
   1415.4558218211071        0.0000000000000000        0.0000000000000000     
   1415.4179137160215        0.0000000000000000        0.0000000000000000     
   1415.3806441459992        0.0000000000000000        0.0000000000000000     
   1415.3441600288052        0.0000000000000000        0.0000000000000000     
   1415.3086051522341        0.0000000000000000        0.0000000000000000     
   1415.2741196097741        0.0000000000000000        0.0000000000000000     
   1415.2408392512807        0.0000000000000000        0.0000000000000000     
   1415.2088951507646        0.0000000000000000        0.0000000000000000     
   1415.1784130933324        0.0000000000000000        0.0000000000000000     
   1415.1495130832452        0.0000000000000000        0.0000000000000000     
   1415.1223088749523        0.0000000000000000        0.0000000000000000     
   1415.0969075288956        0.0000000000000000        0.0000000000000000     
   1415.0734089937459        0.0000000000000000        0.0000000000000000     
   1415.0519057166618        0.0000000000000000        0.0000000000000000     
   1415.0324822830139        0.0000000000000000        0.0000000000000000     
   1415.0152150869528        0.0000000000000000        0.0000000000000000     
   1415.0001720340215        0.0000000000000000        0.0000000000000000     
   1414.9874122769459        0.0000000000000000        0.0000000000000000     
   1414.9769859855728        0.0000000000000000        0.0000000000000000     
   1414.9689341518172        0.0000000000000000        0.0000000000000000     
   1414.9632884303358        0.0000000000000000        0.0000000000000000     
   1414.9600710155248        0.0000000000000000        0.0000000000000000     
   1414.9592945552922        0.0000000000000000        0.0000000000000000     
   1414.9609621019254        0.0000000000000000        0.0000000000000000     
   1414.9650671002335        0.0000000000000000        0.0000000000000000     
   1414.9715934130106        0.0000000000000000        0.0000000000000000     
   1414.9805153837285        0.0000000000000000        0.0000000000000000     
   1414.9917979362174        0.0000000000000000        0.0000000000000000     
   1415.0053967109779        0.0000000000000000        0.0000000000000000     
   1415.0212582376107        0.0000000000000000        0.0000000000000000     
   1415.0393201427285        0.0000000000000000        0.0000000000000000     
   1415.0595113925785        0.0000000000000000        0.0000000000000000     
   1415.0817525694724        0.0000000000000000        0.0000000000000000     
   1415.1059561809939        0.0000000000000000        0.0000000000000000     
   1415.1320270008321        0.0000000000000000        0.0000000000000000     
   1415.1598624399626        0.0000000000000000        0.0000000000000000     
   1415.1893529467859       -0.0000000000000000        0.0000000000000000     
   1415.2203824347177       -0.0000000000000000        0.0000000000000000     
   1415.2528287356215       -0.0000000000000000        0.0000000000000000     
   1415.2865640773578       -0.0000000000000000        0.0000000000000000     
   1415.3214555836580       -0.0000000000000000        0.0000000000000000     
   1415.3573657943930       -0.0000000000000000        0.0000000000000000     
   1415.3941532042700       -0.0000000000000000        0.0000000000000000     
   1415.4316728178810       -0.0000000000000000        0.0000000000000000     
   1415.4697767189693       -0.0000000000000000        0.0000000000000000     
   1415.5083146517122       -0.0000000000000000        0.0000000000000000     
   1415.5471346117679       -0.0000000000000000        0.0000000000000000     
   1415.5860834447828       -0.0000000000000000        0.0000000000000000     
   1415.6250074500197       -0.0000000000000000        0.0000000000000000     
   1415.6637529867396       -0.0000000000000000        0.0000000000000000     
   1415.7021670809440       -0.0000000000000000        0.0000000000000000     
   1415.7400980300799       -0.0000000000000000        0.0000000000000000     
   1415.7773960033041       -0.0000000000000000        0.0000000000000000     
   1415.8139136349162       -0.0000000000000000        0.0000000000000000     
   1415.8495066085802       -0.0000000000000000        0.0000000000000000     
   1415.8840342299948       -0.0000000000000000        0.0000000000000000     
   1415.9173599856947       -0.0000000000000000        0.0000000000000000     
   1415.9493520857288       -0.0000000000000000        0.0000000000000000     
   1415.9798839880095       -0.0000000000000000        0.0000000000000000     
   1416.0088349021937       -0.0000000000000000        0.0000000000000000     
   1416.0360902710431       -0.0000000000000000        0.0000000000000000     
   1416.0615422272851       -0.0000000000000000        0.0000000000000000     
   1416.0850900240932       -0.0000000000000000        0.0000000000000000     
   1416.1066404374253       -0.0000000000000000        0.0000000000000000     
   1416.1261081385410       -0.0000000000000000        0.0000000000000000     
   1416.1434160351669       -0.0000000000000000        0.0000000000000000     
   1416.1584955798864       -0.0000000000000000        0.0000000000000000     
   1416.1712870444753       -0.0000000000000000        0.0000000000000000     
   1416.1817397590396       -0.0000000000000000        0.0000000000000000     
   1416.1898123149549       -0.0000000000000000        0.0000000000000000     
   1416.1954727307630       -0.0000000000000000        0.0000000000000000     
   1416.1986985803285       -0.0000000000000000        0.0000000000000000     
   1416.1994770827221       -0.0000000000000000        0.0000000000000000     
   1416.1978051534504       -0.0000000000000000        0.0000000000000000     
   1416.1936894168221       -0.0000000000000000        0.0000000000000000     
   1416.1871461793917       -0.0000000000000000        0.0000000000000000     
   1416.1782013646007       -0.0000000000000000        0.0000000000000000     
   1416.1668904088833       -0.0000000000000000        0.0000000000000000     
   1416.1532581196764       -0.0000000000000000        0.0000000000000000     
   1416.1373584959219       -0.0000000000000000        0.0000000000000000     
   1416.1192545118229       -0.0000000000000000        0.0000000000000000     
   1416.0990178647432       -0.0000000000000000        0.0000000000000000     
   1416.0767286883129       -0.0000000000000000        0.0000000000000000     
   1416.0524752319300       -0.0000000000000000        0.0000000000000000     
   1416.0263535079889       -0.0000000000000000        0.0000000000000000     
   1415.9984669083033       -0.0000000000000000        0.0000000000000000     
   1415.9689257913035       -0.0000000000000000       -0.0000000000000000     
   1415.9378470417273       -0.0000000000000000       -0.0000000000000000     
   1415.9053536045974       -0.0000000000000000       -0.0000000000000000     
   1415.8715739954168       -0.0000000000000000       -0.0000000000000000     
   1415.8366417885793       -0.0000000000000000       -0.0000000000000000     
   1415.8006950860854       -0.0000000000000000       -0.0000000000000000     
   1415.7638759687231       -0.0000000000000000       -0.0000000000000000     
   1415.7263299319457       -0.0000000000000000       -0.0000000000000000     
   1415.6882053087186       -0.0000000000000000       -0.0000000000000000     
   1415.6496526816652       -0.0000000000000000       -0.0000000000000000     
   1415.6108242868640       -0.0000000000000000       -0.0000000000000000     
   1415.5718734116904       -0.0000000000000000       -0.0000000000000000     
   1415.5329537890868       -0.0000000000000000       -0.0000000000000000     
   1415.4942189906762       -0.0000000000000000       -0.0000000000000000     
   1415.4558218211068       -0.0000000000000000       -0.0000000000000000     
   1415.4179137160211       -0.0000000000000000       -0.0000000000000000     
   1415.3806441459990       -0.0000000000000000       -0.0000000000000000     
   1415.3441600288054       -0.0000000000000000       -0.0000000000000000     
   1415.3086051522341       -0.0000000000000000       -0.0000000000000000     
   1415.2741196097738       -0.0000000000000000       -0.0000000000000000     
   1415.2408392512805       -0.0000000000000000       -0.0000000000000000     
   1415.2088951507644       -0.0000000000000000       -0.0000000000000000     
   1415.1784130933329       -0.0000000000000000       -0.0000000000000000     
   1415.1495130832452       -0.0000000000000000       -0.0000000000000000     
   1415.1223088749521       -0.0000000000000000       -0.0000000000000000     
   1415.0969075288951       -0.0000000000000000       -0.0000000000000000     
   1415.0734089937464       -0.0000000000000000       -0.0000000000000000     
   1415.0519057166614       -0.0000000000000000       -0.0000000000000000     
   1415.0324822830141       -0.0000000000000000       -0.0000000000000000     
   1415.0152150869528       -0.0000000000000000       -0.0000000000000000     
   1415.0001720340215       -0.0000000000000000       -0.0000000000000000     
   1414.9874122769456       -0.0000000000000000       -0.0000000000000000     
   1414.9769859855728       -0.0000000000000000       -0.0000000000000000     
   1414.9689341518174       -0.0000000000000000       -0.0000000000000000     
   1414.9632884303355       -0.0000000000000000       -0.0000000000000000     
   1414.9600710155248       -0.0000000000000000       -0.0000000000000000     
   1414.9592945552922       -0.0000000000000000       -0.0000000000000000     
   1414.9609621019254       -0.0000000000000000       -0.0000000000000000     
   1414.9650671002337       -0.0000000000000000       -0.0000000000000000     
   1414.9715934130106       -0.0000000000000000       -0.0000000000000000     
   1414.9805153837285       -0.0000000000000000       -0.0000000000000000     
   1414.9917979362174       -0.0000000000000000       -0.0000000000000000     
   1415.0053967109779       -0.0000000000000000       -0.0000000000000000     
   1415.0212582376112       -0.0000000000000000       -0.0000000000000000     
   1415.0393201427285       -0.0000000000000000       -0.0000000000000000     
   1415.0595113925785       -0.0000000000000000       -0.0000000000000000     
   1415.0817525694724       -0.0000000000000000       -0.0000000000000000     
   1415.1059561809939       -0.0000000000000000       -0.0000000000000000     
   1415.1320270008321       -0.0000000000000000       -0.0000000000000000     
   1415.1598624399628       -0.0000000000000000       -0.0000000000000000     
   1415.1893529467859        0.0000000000000000       -0.0000000000000000     
   1415.2203824347180        0.0000000000000000       -0.0000000000000000     
   1415.2528287356215        0.0000000000000000       -0.0000000000000000     
   1415.2865640773580        0.0000000000000000       -0.0000000000000000     
   1415.3214555836585        0.0000000000000000       -0.0000000000000000     
   1415.3573657943930        0.0000000000000000       -0.0000000000000000     
   1415.3941532042700        0.0000000000000000       -0.0000000000000000     
   1415.4316728178812        0.0000000000000000       -0.0000000000000000     
   1415.4697767189693        0.0000000000000000       -0.0000000000000000     
   1415.5083146517129        0.0000000000000000       -0.0000000000000000     
   1415.5471346117681        0.0000000000000000       -0.0000000000000000     
   1415.5860834447831        0.0000000000000000       -0.0000000000000000     
   1415.6250074500197        0.0000000000000000       -0.0000000000000000     
   1415.6637529867396        0.0000000000000000       -0.0000000000000000     
   1415.7021670809443        0.0000000000000000       -0.0000000000000000     
   1415.7400980300799        0.0000000000000000       -0.0000000000000000     
   1415.7773960033044        0.0000000000000000       -0.0000000000000000     
   1415.8139136349162        0.0000000000000000       -0.0000000000000000     
   1415.8495066085809        0.0000000000000000       -0.0000000000000000     
   1415.8840342299950        0.0000000000000000       -0.0000000000000000     
   1415.9173599856952        0.0000000000000000       -0.0000000000000000     
   1415.9493520857288        0.0000000000000000       -0.0000000000000000     
   1415.9798839880095        0.0000000000000000       -0.0000000000000000     
   1416.0088349021937        0.0000000000000000       -0.0000000000000000     
   1416.0360902710438        0.0000000000000000       -0.0000000000000000     
   1416.0615422272851        0.0000000000000000       -0.0000000000000000     
   1416.0850900240932        0.0000000000000000       -0.0000000000000000     
   1416.1066404374251        0.0000000000000000       -0.0000000000000000     
   1416.1261081385412        0.0000000000000000       -0.0000000000000000     
   1416.1434160351669        0.0000000000000000       -0.0000000000000000     
   1416.1584955798867        0.0000000000000000       -0.0000000000000000     
   1416.1712870444758        0.0000000000000000       -0.0000000000000000     
   1416.1817397590401        0.0000000000000000       -0.0000000000000000     
   1416.1898123149549        0.0000000000000000       -0.0000000000000000     
   1416.1954727307630        0.0000000000000000       -0.0000000000000000     
   1416.1986985803283        0.0000000000000000       -0.0000000000000000     
   1416.1994770827216        0.0000000000000000       -0.0000000000000000     
   1416.1978051534504        0.0000000000000000       -0.0000000000000000     
   1416.1936894168221        0.0000000000000000       -0.0000000000000000     
   1416.1871461793917        0.0000000000000000       -0.0000000000000000     
   1416.1782013646005        0.0000000000000000       -0.0000000000000000     
   1416.1668904088833        0.0000000000000000       -0.0000000000000000     
   1416.1532581196761        0.0000000000000000       -0.0000000000000000     
   1416.1373584959219        0.0000000000000000       -0.0000000000000000     
   1416.1192545118229        0.0000000000000000       -0.0000000000000000     
   1416.0990178647430        0.0000000000000000       -0.0000000000000000     
   1416.0767286883124        0.0000000000000000       -0.0000000000000000     
   1416.0524752319295        0.0000000000000000       -0.0000000000000000     
   1416.0263535079889        0.0000000000000000       -0.0000000000000000     
   1415.9984669083026        0.0000000000000000       -0.0000000000000000     
   1415.9689257913033        0.0000000000000000        0.0000000000000000     
   1414.1593987565655        44.441749493032255        0.0000000000000000     
   1413.8273839192086        44.409391334349579        1.3956213468966550     
   1413.4949551276206        44.333214073754412        2.7892094117352655     
   1413.1630911583648        44.213344163937592        4.1793915330004650     
   1412.8327853069627        44.049951259070241        5.5648029631400746     
   1412.5050375772119        43.843247503393677        6.9440882178355956     
   1412.1808468736351        43.593486781372640        8.3159023538276227     
   1411.8612032908895        43.300963938620818        9.6789121752568565     
   1411.5470805908049        42.966013982512585        11.031797369659545     
   1411.2394289533061        42.589011270935963        12.373251575866044     
   1410.9391680820104        42.170368697035194        13.701983387071301     
   1410.6471807387584        41.710536877050728        15.016717293256837     
   1410.3643067739897        41.210003347512924        16.316194567929408     
   1410.0913377117708        40.669291777101954        17.599174104788801     
   1409.8290119395399        40.088961197472571        18.864433210435941     
   1409.5780105434960        39.469605256285014        20.110768359577833     
   1409.3389538210322        38.811851494601079        21.336995919373535     
   1409.1123984919391        38.116360649725593        22.541952849597195     
   1408.8988356203795        37.383825983516928        23.724497385174136     
   1408.6986892499740        36.614972635179825        24.883509707380554     
   1408.5123157449168        35.810556996607808        26.017892609597766     
   1408.3400038209218        34.971366107479959        27.126572162989500     
   1408.1819752411463        34.098217066553161        28.208498386841931     
   1408.0383861441237        33.191956454938463        29.262645927585922     
   1407.9093289632576        32.253459766620885        30.288014749729690     
   1407.7948348907125        31.283630841082253        31.283630841085493     
   1407.6948768325788        30.283401292621207        32.248546933797051     
   1407.6093727971568        29.253729930835497        33.181843241785344     
   1407.5381896540541        28.195602166737409        34.082628214348794     
   1407.4811471986561        27.110029399109024        34.950039304800463     
   1407.4380224543570        25.998048375963620        35.783243752215952     
   1407.4085541438144        24.860720526352509        36.581439373621073     
   1407.3924472603881        23.699131258231901        37.343855363280547     
   1407.3893776718282        22.514389218666889        38.069753095173283     
   1407.3989966901740        21.307625513284709        38.758426924265109     
   1407.4209355447119        20.079992882579724        39.409204981826662     
   1407.4548096985745        18.832664833399228        40.021449959794666     
   1407.5002229542024        17.566834724686046        40.594559879044944     
   1407.5567712982295        16.283714807299578        41.127968836432167     
   1407.6240464424361        14.984535218466368        41.621147725553044     
   1407.7016390239926        13.670542932105006        42.073604926398950     
   1407.7891414353257        12.343000666913689        42.484886959373590     
   1407.8861502613427        11.003185754687117        42.854579099549106     
   1407.9922683094076        9.6523889718310798        43.182305947508013     
   1408.1071062251740        8.2919133374571086        43.467731953652546     
   1408.2302836950801        6.9230728817597909        43.710561893442964     
   1408.3614302438457        5.5471913886001314        43.910541291634715     
   1408.5001856424878        4.1656011163382889        44.067456794201810     
   1408.6461999492353        2.7796415009789133        44.181136487248438     
   1408.7991332119345        1.3906578456157290        44.251450162799102     
   1408.9586548662019       -4.5788887774887613E-012   44.278309531910345     
   1409.1244428684761       -1.3909789662271455        44.261668386046225     
   1409.2961826071994       -2.7809240932891308        44.201522708093719     
   1409.4735656385897       -4.1684798612987617        44.097910734754024     
   1409.6562882957423       -5.5522915179373253        43.950912972321220     
   1409.8440502211558       -6.9310064018781139        43.760652168048118     
   1410.0365528731174       -8.3032752603789888        43.527293239394574     
   1410.2334980558167       -9.6677535599663180        43.251043163459840     
   1410.4345865214664       -11.023102789570522        42.932150828815814     
   1410.6395166902844       -12.367991755884182        42.570906851792735     
   1410.8479835308458       -13.701097871077900        42.167643359025533     
   1411.0596776391912       -15.021108433315678        41.722733737761125     
   1411.2742845502721       -16.326721900750453        41.236592355065277     
   1411.4914843098334       -17.616649159842652        40.709674246663930     
   1411.7109513288574       -18.889614788926004        40.142474775724025     
   1411.9323545363332       -20.144358317941485        39.535529261438889     
   1412.1553578394064       -21.379635485171459        38.889412576844975     
   1412.3796208931335       -22.594219491634597        38.204738714879781     
   1412.6048001751556       -23.786902253552125        37.482160321306587     
   1412.8305503538058       -24.956495652974667        36.722368192796253     
   1413.0565259315306       -26.101832786275207        35.926090738179980     
   1413.2823831392209       -27.221769209779392        35.094093400682873     
   1413.5077820511960       -28.315184181331784        34.227178038822665     
   1413.7323888852595       -29.380981896100050        33.326182263619259     
   1413.9558784475853       -30.418092714413589        32.391978729812081     
   1414.1779366782450       -31.425474378934759        31.425474378924996     
   1414.3982632500456       -32.402113217983512        30.427609632252086     
   1414.6165741710772       -33.347025331398243        29.399357532157477     
   1414.8326043400004       -34.259257754928186        28.341722830482748     
   1415.0461100026748       -35.137889598831052        27.255741023327349     
   1415.2568710592625       -35.982033156105231        26.142477332000311     
   1415.4646931724023       -36.790834975627106        25.003025630521538     
   1415.6694096294730       -37.563476895400868        23.838507320666199     
   1415.8708829152347       -38.299177031162714        22.650070156177243     
   1416.0690059552969       -38.997190715718951        21.438887018406373     
   1416.2637029957402       -39.656811384634835        20.206154646263066     
   1416.4549300898254       -40.277371404228440        18.953092323940904     
   1416.6426751689066       -40.858242838252373        17.680940530432224     
   1416.8269576813220       -41.398838150159726        16.390959555323150     
   1417.0078277901034       -41.898610838438088        15.084428085766957     
   1417.1853651276338       -42.357056003143754        13.762641769852943     
   1417.3596771128036       -42.773710842462755        12.426911761811860     
   1417.5308968436625       -43.148155078851147        11.078563254619304     
   1417.6991805858627       -43.480011315046873        9.7189340055718834     
   1417.8647048842454       -43.768945320980883        8.3493728603148778     
   1418.0276633316203       -44.014666253330660        6.9712382805961592     
   1418.1882630350065       -44.216926810136428        5.5858968807126672     
   1418.3467208252241       -44.375523323522501        4.1947219772092428     
   1418.5032592606963       -44.490295794119575        2.7990921558944306     
   1418.6581024805237       -44.561127871253589        1.4003898596646707     
   1418.8114719652604       -44.587946783341856       -9.2218176933956533E-012
   1418.9635822663333       -44.570723223208319       -1.4006914057664324     
   1419.1146367666099       -44.509471193189512       -2.8002985697648515     
   1419.2648235352492       -44.404247814947240       -4.1974372411038772     
   1419.4143113396369       -44.255153108831237       -5.5907259852856690     
   1419.5632458758951       -44.062329747446000       -6.9787874364542244     
   1419.7117462772244       -43.825962787775495       -8.3602495238294043     
   1419.8599019561480       -43.546279385812156       -9.7337466743773486     
   1420.0077698326868       -43.223548497133940       -11.097920994312339     
   1420.1553719956166       -42.858080566284364       -12.451423432496316     
   1420.3026938382914       -42.450227207150334       -13.792914929175826     
   1420.4496827042005       -42.000380875816170       -15.121067553764080     
   1420.5962470704392       -41.508974536615071       -16.434565635528447     
   1420.7422562898255       -40.976481321321693       -17.732106891077130     
   1420.8875409044665       -40.403414180647196       -19.012403552448777     
   1421.0318935353807       -39.790325526432490       -20.274183499397083     
   1421.1750703443349       -39.137806862203369       -21.516191399130655     
   1421.3167930555528       -38.446488399072962       -22.737189856323202     
   1421.4567515164563       -37.717038653368334       -23.935960575659003     
   1421.5946067682610       -36.950164021835910       -25.111305538534118     
   1421.7299945891773       -36.146608329859546       -26.262048194809516     
   1421.8625294653273       -35.307152347817727       -27.387034669723622     
   1421.9918089373011       -34.432613270520719       -28.485134985236016     
   1422.1174182638163       -33.523844154616611       -29.555244294211189     
   1422.2389353381388       -32.581733308934261       -30.596284124980802     
   1422.3559357880713       -31.607203632950661       -31.607203632967018     
   1422.4679981863244       -30.601211898920500       -32.586980855227402     
   1422.5747092952149       -29.564747973688206       -33.534623963016948     
   1422.6756692678107       -28.498833976803926       -34.449172506772626     
   1422.7704967270233       -27.404523372276586       -35.329698647330787     
   1422.8588336447147       -26.282899992103602       -36.175308366703810     
   1422.9403499446898       -25.135076990600417       -36.985142651384763     
   1423.0147477564569       -23.962195729496887       -37.758378640927454     
   1423.0817652508781       -22.765424594746047       -38.494230734476687     
   1423.1411799942157       -21.545957746987753       -39.191951647999630     
   1423.1928117635648       -20.305013808593802       -39.850833415200881     
   1423.2365247741723       -19.043834491178011       -40.470208325484975     
   1423.2722292775441       -17.763683168351196       -41.049449792857466     
   1423.2998824984445       -16.465843399324584       -41.587973150317509     
   1423.3194888887317       -15.151617409686438       -42.085236365080497     
   1423.3310996862997       -13.822324536284631       -42.540740670858661     
   1423.3348117780679       -12.479299643619770       -42.954031114406170     
   1423.3307658767565       -11.123891519483504       -43.324697014576010     
   1423.3191440319979       -9.7574612577480089       -43.652372333220391     
   1423.3001665068898       -8.3813806362279415       -43.936735958365048     
   1423.2740880613212       -6.9970304973851816       -44.177511901178946     
   1423.2411936930596       -5.6057991393411051       -44.374469409316106     
   1423.2017938965123       -4.2090807241979258       -44.527423000202141     
   1423.1562195071856       -2.8082737100685460       -44.636232418750865     
   1423.1048162069264       -1.4047793124819778       -44.700802524803194     
   1423.0479387710357        1.3893890195624544E-011  -44.721083116263983     
   1422.9859451430998        1.4046619721638596       -44.697068694455091     
   1422.9191904268669        2.8078059873504126       -44.628798178590465     
   1422.8480208866501        4.2080344501392304       -44.516354576506032     
   1422.7727680484929        5.6039541252650933       -44.359864618833349     
   1422.6937429937229        6.9941774333604387       -44.159498363693892     
   1422.6112309344967        8.3773237047645992       -43.915468778710149     
   1422.5254861576154        9.7520203937259531       -43.628031306689820     
   1422.4367274182025        11.116904256208240       -43.297483420747611     
   1422.3451338589716        12.470622495303740       -42.924164173901850     
   1422.2508415237508        13.811833878930573       -42.508453747336148     
   1422.1539405258507        15.139209835022044       -42.050773000570217     
   1422.0544729228318        16.451435529798616       -41.551583025760387     
   1421.9524313393586        17.747210934929058       -41.011384707274047     
   1421.8477583693382        19.025251889435793       -40.430718286578909     
   1421.7403467774636        20.284291162076542       -39.810162931383061     
   1421.6300405088382        21.523079519637665       -39.150336306882487     
   1421.5166365037232        22.740386806116849       -38.451894145945090     
   1421.3998873027003        23.935003037153784       -37.715529814109267     
   1421.2795044159377        25.105739513310070       -36.941973864423737     
   1421.1551624189012        26.251429954910321       -36.131993576427256     
   1421.0265037259239        27.370931660163869       -35.286392472977411     
   1420.8931439827363        28.463126687204628       -34.406009808207642     
   1420.7546780094908        29.526923059548032       -33.491720019628275     
   1420.6106862171298        30.561255993286441       -32.544432137304419     
   1420.4607414123352        31.565089143164499       -31.565089143141634     
   1420.3044158998227        32.537415863512777       -30.554667273593804     