 VARIABLES = "x_1", "x_2", "x_3"
 ZONE F = POINT , I =         201  , J =         101
   2421.7206257497041        0.0000000000000000        0.0000000000000000     
   2421.7206257497041        0.0000000000000000        0.0000000000000000     
   2421.7206257497041        0.0000000000000000        0.0000000000000000     
   2421.7206257497041        0.0000000000000000        0.0000000000000000     
   2421.7206257497041        0.0000000000000000        0.0000000000000000     
   2421.7206257497041        0.0000000000000000        0.0000000000000000     
   2421.7206257497041        0.0000000000000000        0.0000000000000000     
   2421.7206257497041        0.0000000000000000        0.0000000000000000     
   2421.7206257497041        0.0000000000000000        0.0000000000000000     
   2421.7206257497041        0.0000000000000000        0.0000000000000000     
   2421.7206257497041        0.0000000000000000        0.0000000000000000     
   2421.7206257497041        0.0000000000000000        0.0000000000000000     
   2421.7206257497041        0.0000000000000000        0.0000000000000000     
   2421.7206257497041        0.0000000000000000        0.0000000000000000     
   2421.7206257497041        0.0000000000000000        0.0000000000000000     
   2421.7206257497041        0.0000000000000000        0.0000000000000000     
   2421.7206257497041        0.0000000000000000        0.0000000000000000     
   2421.7206257497041        0.0000000000000000        0.0000000000000000     
   2421.7206257497041        0.0000000000000000        0.0000000000000000     
   2421.7206257497041        0.0000000000000000        0.0000000000000000     
   2421.7206257497041        0.0000000000000000        0.0000000000000000     
   2421.7206257497041        0.0000000000000000        0.0000000000000000     
   2421.7206257497041        0.0000000000000000        0.0000000000000000     
   2421.7206257497041        0.0000000000000000        0.0000000000000000     
   2421.7206257497041        0.0000000000000000        0.0000000000000000     
   2421.7206257497041        0.0000000000000000        0.0000000000000000     
   2421.7206257497041        0.0000000000000000        0.0000000000000000     
   2421.7206257497041        0.0000000000000000        0.0000000000000000     
   2421.7206257497041        0.0000000000000000        0.0000000000000000     
   2421.7206257497041        0.0000000000000000        0.0000000000000000     
   2421.7206257497041        0.0000000000000000        0.0000000000000000     
   2421.7206257497041        0.0000000000000000        0.0000000000000000     
   2421.7206257497041        0.0000000000000000        0.0000000000000000     
   2421.7206257497041        0.0000000000000000        0.0000000000000000     
   2421.7206257497041        0.0000000000000000        0.0000000000000000     
   2421.7206257497041        0.0000000000000000        0.0000000000000000     
   2421.7206257497041        0.0000000000000000        0.0000000000000000     
   2421.7206257497041        0.0000000000000000        0.0000000000000000     
   2421.7206257497041        0.0000000000000000        0.0000000000000000     
   2421.7206257497041        0.0000000000000000        0.0000000000000000     
   2421.7206257497041        0.0000000000000000        0.0000000000000000     
   2421.7206257497041        0.0000000000000000        0.0000000000000000     
   2421.7206257497041        0.0000000000000000        0.0000000000000000     
   2421.7206257497041        0.0000000000000000        0.0000000000000000     
   2421.7206257497041        0.0000000000000000        0.0000000000000000     
   2421.7206257497041        0.0000000000000000        0.0000000000000000     
   2421.7206257497041        0.0000000000000000        0.0000000000000000     
   2421.7206257497041        0.0000000000000000        0.0000000000000000     
   2421.7206257497041        0.0000000000000000        0.0000000000000000     
   2421.7206257497041        0.0000000000000000        0.0000000000000000     
   2421.7206257497041       -0.0000000000000000        0.0000000000000000     
   2421.7206257497041       -0.0000000000000000        0.0000000000000000     
   2421.7206257497041       -0.0000000000000000        0.0000000000000000     
   2421.7206257497041       -0.0000000000000000        0.0000000000000000     
   2421.7206257497041       -0.0000000000000000        0.0000000000000000     
   2421.7206257497041       -0.0000000000000000        0.0000000000000000     
   2421.7206257497041       -0.0000000000000000        0.0000000000000000     
   2421.7206257497041       -0.0000000000000000        0.0000000000000000     
   2421.7206257497041       -0.0000000000000000        0.0000000000000000     
   2421.7206257497041       -0.0000000000000000        0.0000000000000000     
   2421.7206257497041       -0.0000000000000000        0.0000000000000000     
   2421.7206257497041       -0.0000000000000000        0.0000000000000000     
   2421.7206257497041       -0.0000000000000000        0.0000000000000000     
   2421.7206257497041       -0.0000000000000000        0.0000000000000000     
   2421.7206257497041       -0.0000000000000000        0.0000000000000000     
   2421.7206257497041       -0.0000000000000000        0.0000000000000000     
   2421.7206257497041       -0.0000000000000000        0.0000000000000000     
   2421.7206257497041       -0.0000000000000000        0.0000000000000000     
   2421.7206257497041       -0.0000000000000000        0.0000000000000000     
   2421.7206257497041       -0.0000000000000000        0.0000000000000000     
   2421.7206257497041       -0.0000000000000000        0.0000000000000000     
   2421.7206257497041       -0.0000000000000000        0.0000000000000000     
   2421.7206257497041       -0.0000000000000000        0.0000000000000000     
   2421.7206257497041       -0.0000000000000000        0.0000000000000000     
   2421.7206257497041       -0.0000000000000000        0.0000000000000000     
   2421.7206257497041       -0.0000000000000000        0.0000000000000000     
   2421.7206257497041       -0.0000000000000000        0.0000000000000000     
   2421.7206257497041       -0.0000000000000000        0.0000000000000000     
   2421.7206257497041       -0.0000000000000000        0.0000000000000000     
   2421.7206257497041       -0.0000000000000000        0.0000000000000000     
   2421.7206257497041       -0.0000000000000000        0.0000000000000000     
   2421.7206257497041       -0.0000000000000000        0.0000000000000000     
   2421.7206257497041       -0.0000000000000000        0.0000000000000000     
   2421.7206257497041       -0.0000000000000000        0.0000000000000000     
   2421.7206257497041       -0.0000000000000000        0.0000000000000000     
   2421.7206257497041       -0.0000000000000000        0.0000000000000000     
   2421.7206257497041       -0.0000000000000000        0.0000000000000000     
   2421.7206257497041       -0.0000000000000000        0.0000000000000000     
   2421.7206257497041       -0.0000000000000000        0.0000000000000000     
   2421.7206257497041       -0.0000000000000000        0.0000000000000000     
   2421.7206257497041       -0.0000000000000000        0.0000000000000000     
   2421.7206257497041       -0.0000000000000000        0.0000000000000000     
   2421.7206257497041       -0.0000000000000000        0.0000000000000000     
   2421.7206257497041       -0.0000000000000000        0.0000000000000000     
   2421.7206257497041       -0.0000000000000000        0.0000000000000000     
   2421.7206257497041       -0.0000000000000000        0.0000000000000000     
   2421.7206257497041       -0.0000000000000000        0.0000000000000000     
   2421.7206257497041       -0.0000000000000000        0.0000000000000000     
   2421.7206257497041       -0.0000000000000000        0.0000000000000000     
   2421.7206257497041       -0.0000000000000000        0.0000000000000000     
   2421.7206257497041       -0.0000000000000000       -0.0000000000000000     
   2421.7206257497041       -0.0000000000000000       -0.0000000000000000     
   2421.7206257497041       -0.0000000000000000       -0.0000000000000000     
   2421.7206257497041       -0.0000000000000000       -0.0000000000000000     
   2421.7206257497041       -0.0000000000000000       -0.0000000000000000     
   2421.7206257497041       -0.0000000000000000       -0.0000000000000000     
   2421.7206257497041       -0.0000000000000000       -0.0000000000000000     
   2421.7206257497041       -0.0000000000000000       -0.0000000000000000     
   2421.7206257497041       -0.0000000000000000       -0.0000000000000000     
   2421.7206257497041       -0.0000000000000000       -0.0000000000000000     
   2421.7206257497041       -0.0000000000000000       -0.0000000000000000     
   2421.7206257497041       -0.0000000000000000       -0.0000000000000000     
   2421.7206257497041       -0.0000000000000000       -0.0000000000000000     
   2421.7206257497041       -0.0000000000000000       -0.0000000000000000     
   2421.7206257497041       -0.0000000000000000       -0.0000000000000000     
   2421.7206257497041       -0.0000000000000000       -0.0000000000000000     
   2421.7206257497041       -0.0000000000000000       -0.0000000000000000     
   2421.7206257497041       -0.0000000000000000       -0.0000000000000000     
   2421.7206257497041       -0.0000000000000000       -0.0000000000000000     
   2421.7206257497041       -0.0000000000000000       -0.0000000000000000     
   2421.7206257497041       -0.0000000000000000       -0.0000000000000000     
   2421.7206257497041       -0.0000000000000000       -0.0000000000000000     
   2421.7206257497041       -0.0000000000000000       -0.0000000000000000     
   2421.7206257497041       -0.0000000000000000       -0.0000000000000000     
   2421.7206257497041       -0.0000000000000000       -0.0000000000000000     
   2421.7206257497041       -0.0000000000000000       -0.0000000000000000     
   2421.7206257497041       -0.0000000000000000       -0.0000000000000000     
   2421.7206257497041       -0.0000000000000000       -0.0000000000000000     
   2421.7206257497041       -0.0000000000000000       -0.0000000000000000     
   2421.7206257497041       -0.0000000000000000       -0.0000000000000000     
   2421.7206257497041       -0.0000000000000000       -0.0000000000000000     
   2421.7206257497041       -0.0000000000000000       -0.0000000000000000     
   2421.7206257497041       -0.0000000000000000       -0.0000000000000000     
   2421.7206257497041       -0.0000000000000000       -0.0000000000000000     
   2421.7206257497041       -0.0000000000000000       -0.0000000000000000     
   2421.7206257497041       -0.0000000000000000       -0.0000000000000000     
   2421.7206257497041       -0.0000000000000000       -0.0000000000000000     
   2421.7206257497041       -0.0000000000000000       -0.0000000000000000     
   2421.7206257497041       -0.0000000000000000       -0.0000000000000000     
   2421.7206257497041       -0.0000000000000000       -0.0000000000000000     
   2421.7206257497041       -0.0000000000000000       -0.0000000000000000     
   2421.7206257497041       -0.0000000000000000       -0.0000000000000000     
   2421.7206257497041       -0.0000000000000000       -0.0000000000000000     
   2421.7206257497041       -0.0000000000000000       -0.0000000000000000     
   2421.7206257497041       -0.0000000000000000       -0.0000000000000000     
   2421.7206257497041       -0.0000000000000000       -0.0000000000000000     
   2421.7206257497041       -0.0000000000000000       -0.0000000000000000     
   2421.7206257497041       -0.0000000000000000       -0.0000000000000000     
   2421.7206257497041       -0.0000000000000000       -0.0000000000000000     
   2421.7206257497041       -0.0000000000000000       -0.0000000000000000     
   2421.7206257497041        0.0000000000000000       -0.0000000000000000     
   2421.7206257497041        0.0000000000000000       -0.0000000000000000     
   2421.7206257497041        0.0000000000000000       -0.0000000000000000     
   2421.7206257497041        0.0000000000000000       -0.0000000000000000     
   2421.7206257497041        0.0000000000000000       -0.0000000000000000     
   2421.7206257497041        0.0000000000000000       -0.0000000000000000     
   2421.7206257497041        0.0000000000000000       -0.0000000000000000     
   2421.7206257497041        0.0000000000000000       -0.0000000000000000     
   2421.7206257497041        0.0000000000000000       -0.0000000000000000     
   2421.7206257497041        0.0000000000000000       -0.0000000000000000     
   2421.7206257497041        0.0000000000000000       -0.0000000000000000     
   2421.7206257497041        0.0000000000000000       -0.0000000000000000     
   2421.7206257497041        0.0000000000000000       -0.0000000000000000     
   2421.7206257497041        0.0000000000000000       -0.0000000000000000     
   2421.7206257497041        0.0000000000000000       -0.0000000000000000     
   2421.7206257497041        0.0000000000000000       -0.0000000000000000     
   2421.7206257497041        0.0000000000000000       -0.0000000000000000     
   2421.7206257497041        0.0000000000000000       -0.0000000000000000     
   2421.7206257497041        0.0000000000000000       -0.0000000000000000     
   2421.7206257497041        0.0000000000000000       -0.0000000000000000     
   2421.7206257497041        0.0000000000000000       -0.0000000000000000     
   2421.7206257497041        0.0000000000000000       -0.0000000000000000     
   2421.7206257497041        0.0000000000000000       -0.0000000000000000     
   2421.7206257497041        0.0000000000000000       -0.0000000000000000     
   2421.7206257497041        0.0000000000000000       -0.0000000000000000     
   2421.7206257497041        0.0000000000000000       -0.0000000000000000     
   2421.7206257497041        0.0000000000000000       -0.0000000000000000     
   2421.7206257497041        0.0000000000000000       -0.0000000000000000     
   2421.7206257497041        0.0000000000000000       -0.0000000000000000     
   2421.7206257497041        0.0000000000000000       -0.0000000000000000     
   2421.7206257497041        0.0000000000000000       -0.0000000000000000     
   2421.7206257497041        0.0000000000000000       -0.0000000000000000     
   2421.7206257497041        0.0000000000000000       -0.0000000000000000     
   2421.7206257497041        0.0000000000000000       -0.0000000000000000     
   2421.7206257497041        0.0000000000000000       -0.0000000000000000     
   2421.7206257497041        0.0000000000000000       -0.0000000000000000     
   2421.7206257497041        0.0000000000000000       -0.0000000000000000     
   2421.7206257497041        0.0000000000000000       -0.0000000000000000     
   2421.7206257497041        0.0000000000000000       -0.0000000000000000     
   2421.7206257497041        0.0000000000000000       -0.0000000000000000     
   2421.7206257497041        0.0000000000000000       -0.0000000000000000     
   2421.7206257497041        0.0000000000000000       -0.0000000000000000     
   2421.7206257497041        0.0000000000000000       -0.0000000000000000     
   2421.7206257497041        0.0000000000000000       -0.0000000000000000     
   2421.7206257497041        0.0000000000000000       -0.0000000000000000     
   2421.7206257497041        0.0000000000000000       -0.0000000000000000     
   2421.7206257497041        0.0000000000000000       -0.0000000000000000     
   2421.7206257497041        0.0000000000000000       -0.0000000000000000     
   2421.7206257497041        0.0000000000000000       -0.0000000000000000     
   2421.7206257497041        0.0000000000000000       -0.0000000000000000     
   2421.7206257497041        0.0000000000000000        0.0000000000000000     
   3237.7259692413268        101.74963768485159        0.0000000000000000     
   3250.9676152844486        102.11536053450379        3.2091044872702486     
   3263.1092290803413        102.34498501326533        6.4390006771897843     
   3274.1038456233123        102.43621635798358        9.6830733665325219     
   3283.9082195189180        102.38720286890810        12.934511699265606     
   3292.4832204013619        102.19656064407967        16.186345060706174     
   3299.7942005819978        101.86339460897204        19.431481754278479     
   3305.8113287418805        101.38731541038304        22.662750024068391     
   3310.5098838705499        100.76845180402603        25.872940925094191     
   3313.8705041984908        100.00745823719578        29.054852491402908     
   3315.8793865622647        99.105517409593872        32.201334611732520     
   3316.5284324637214        98.064337684791923        35.305333995190665     
   3315.8153380168469        96.886145319406637        38.359938596402124     
   3313.7436259922192        95.573671574129250        41.358420871593147     
   3310.3226192404268        94.130134867402177        44.294279254294729     
   3305.5673558705139        92.559218225861386        47.161277271388563     
   3299.4984476446325        90.865042372845821        49.953479766169096     
   3292.1418840935453        89.052134874742933        52.665285753530540     
   3283.5287858284141        87.125395832431977        55.291457501438373     
   3273.6951113952782        85.090060659799320        57.827145510286897     
   3262.6813227662028        82.951660531910065        60.267909145101704     
   3250.5320151671549        80.715981111156211        62.609732762197069     
   3237.2955173946993        78.389020170351742        64.849037259208558     
   3223.0234690651046        75.976944727630155        66.982687062835552     
   3207.7703813696467        73.486048289949267        69.007992649791873     
   3191.5931878840856        70.922708771288796        70.922708771296143     
   3174.5507918083890        68.293347609856795        72.725028618208952     
   3156.7036157092120        65.604390557689626        74.413574221300934     
   3138.1131594202861        62.862230557996249        75.987383428200005     
   3118.8415712447249        60.073193062581005        77.445893834813589     
   3098.9512370199159        57.243504075795869        78.788924074353659     
   3078.5043909719570        54.379261144722541        80.016652881775343     
   3057.5627516239224        51.486407449513322        81.129596356056510     
   3036.1871853507255        48.570709084642864        82.128583838141992     
   3014.4373995111250        45.637735562605783        83.014732809592715     
   2992.3716664504923        42.692843517425594        83.789423197201913     
   2970.0465790694766        39.741163537022132        84.454271443319044     
   2947.5168381041622        36.787590011550428        85.011104671637383     
   2924.8350707704435        33.836773849544898        85.461935245000078     
   2902.0516799941088        30.893117885123839        85.808935976544987     
   2879.2147230811179        27.960774777472853        86.054416219317503     
   2856.3698183801957        25.043647188010766        86.200799023298941     
   2833.5600782505749        22.145390010598014        86.250599513442793     
   2810.8260664685299        19.269414425331256        86.206404608467381     
   2788.2057780830605        16.418893546273175        86.070854168360967     
   2765.7346396585185        13.596769437255974        85.846623629214022     
   2743.4455278146097        10.805761277026599        85.536408157383534     
   2721.3688039860212        8.0483744648435263        85.142908331275351     
   2699.5323633689163        5.3269104695887064        84.668817338267488     
   2677.9616960938893        2.6434772389735191        84.116809656466771     
   2656.6799587590667       -8.6337821244984507E-012   83.489531176007077     
   2635.7080545676167       -2.6017677030397088        82.789590702310804     
   2615.0647204363472       -5.1602328710761762        82.019552773967391     
   2594.7666195720785       -7.6739519364848592        81.181931720420053     
   2574.8284381463709       -10.141619780625986        80.279186879267797     
   2555.2629848338825       -12.562058976372347        79.313718889449689     
   2536.0812921124912       -14.934209335353676        78.287866974648878     
   2517.2927183521974       -17.257117826854735        77.203907130707492     
   2498.9050498431170       -19.529928923349111        76.064051131464069     
   2480.9246020292694       -21.751875416662628        74.870446269014835     
   2463.3563193234863       -23.922269738744969        73.625175746769997     
   2446.2038729790561       -26.040495811978559        72.330259646667187     
   2429.4697565853403       -28.106001445844242        70.987656395365036     
   2413.1553788374881       -30.118291289553092        69.599264658046536     
   2397.2611533046320       -32.076920343895701        68.166925592501883     
   2381.7865849867926       -33.981488029995766        66.692425400345044     
   2366.7303535085885       -35.831632807825201        65.177498116467675     
   2352.0903928480702       -37.627027333181417        63.623828582088208     
   2337.8639675422164       -39.367374138281882        62.033055550963610     
   2324.0477453472431       -41.052401818136978        60.406774882456482     
   2310.6378663625874       -42.681861702363612        58.746542779166390     
   2297.6300086527126       -44.255524990044599        57.053879030718100     
   2285.0194504212886       -45.773180323573854        55.330270229038952     
   2272.8011288085090       -47.234631776112110        53.577172924047254     
   2260.9696953946464       -48.639697226269021        51.796016692106384     
   2249.5195685021149       -49.988207092895372        49.988207092879840     
   2238.4449823945856       -51.280003402375591        48.155128493349160     
   2227.7400334756881       -52.514939160538653        46.298146740737721     
   2217.3987235917830       -53.692878001222567        44.418611668919525     
   2207.4150005436813       -54.813694083623076        42.517859425593457     
   2197.7827959112769       -55.877272210809707        40.597214610071255     
   2188.4960602931415       -56.883508142190152        38.657992213967638     
   2179.5487960605369       -57.832309073237091        36.701499359400025     
   2170.9350877221541       -58.723594256448358        34.729036831501396     
   2162.6491299924519       -59.557295738285305        32.741900404129517     
   2154.6852536529291       -60.333359187717100        30.741381959617026     
   2147.0379492920447       -61.051744792984465        28.728770405251296     
   2139.7018890061045       -61.712428204278908        26.705352390898234     
   2132.6719461401290       -62.315401501204285        24.672412833789203     
   2125.9432131447811       -62.860674165143749        22.631235257972765     
   2119.5110176227331       -63.348274037984403        20.583101957287745     
   2113.3709366355902       -63.778248250053053        18.529293991942733     
   2107.5188093404572       -64.150664101571905        16.471091029879162     
   2101.9507480237535       -64.465609883456409        14.409771045055674     
   2096.6631475984932       -64.723195624822424        12.346609885609929     
   2091.6526936304467       -64.923553756154206        10.282880725535344     
   2086.9163689578295       -65.066839678679699        8.2198534140470443     
   2082.4514589688392       -65.153232232108365        6.1587937372081036     
   2078.2555556010807       -65.182934054486680        4.1009626066413567     
   2074.3265601268499       -65.156171829511791        2.0476151902671829     
   2070.6626847882526       -65.073196418199672       -1.3458640672805332E-011
   2067.2624533461581       -64.934282873320456       -2.0406420489247648     
   2064.1247006069611       -64.739730336476029       -4.0730785922241122     
   2061.2485709910775       -64.489861819097257       -6.0960867708247077     
   2058.6335162068453       -64.185023869965718       -8.1084541710554046     
   2056.2792920931533       -63.825586133112964       -10.108979738092811     
   2054.1859546934165       -63.411940801104990       -12.096474650304996     
   2052.3538556227290       -62.944501969784056       -14.069763143033148     
   2050.7836367887735       -62.423704901496833       -16.027683271192231     
   2049.4762245255706       -61.850005204692721       -17.969087600987180     
   2048.4328231973391       -61.223877938523344       -19.892843822000948     
   2047.6549083274890       -60.545816651710574       -21.797835271905470     
   2047.1442193052123       -59.816332365479902       -23.682961367063182     
   2046.9027517191496       -59.035952510777989       -25.547137933313966     
   2046.9327493643430       -58.205219830313787       -27.389297432269462     
   2047.2366959649351       -57.324691256181630       -29.208389079452473     
   2047.8173066510337       -56.394936773952068       -31.003378851614897     
   2048.6775192238024       -55.416538284157845       -32.773249381534733     
   2049.8204852380559       -54.390088472062054       -34.516999739522703     
   2051.2495609266625       -53.316189696486738       -36.233645101757290     
   2052.9682979857021       -52.195452908307423       -37.922216306406256     
   2054.9804342337579       -51.028496608993180       -39.581759299281146     
   2057.2898841529181       -49.815945859302218       -41.211334471505630     
   2059.9007293129848       -48.558431347937471       -42.810015892355160     
   2062.8172086741806       -47.256588529636240       -44.376890441049198     
   2066.0437087572359       -45.911056841820248       -45.911056841844008     
   2069.5847536631773       -44.522479008576227       -47.411624607289426     
   2073.4449949184609       -43.091500440380919       -48.877712894979304     
   2077.6292011142946       -41.618768737634255       -50.308449283546011     
   2082.1422473021298       -40.104933305728665       -51.702968474032147     
   2086.9891041003452       -38.550645089065625       -53.060410923120777     
   2092.1748264601251       -36.956556431135979       -54.379921415027447     
   2097.7045420315503       -35.323321067518123       -55.660647579160830     
   2103.5834390637970       -33.651594258409311       -56.901738360951015     
   2109.8167537663471       -31.942033067106763       -58.102342453533872     
   2116.4097570510612       -30.195296790680871       -59.261606698277191     
   2123.3677405679755       -28.412047548947893       -60.378674462444316     
   2130.6960019408007       -26.592951037737325       -61.452684002629553     
   2138.3998291012717       -24.738677452369195       -62.482766822967427     
   2146.4844836148513       -22.849902587192812       -63.468046037533568     
   2154.9551828838034       -20.927309116995637       -64.407634746818474     
   2163.8170811074101       -18.971588066049829       -65.300634438682977     
   2173.0752488731782       -16.983440470528652       -66.146133424798663     
   2182.7346512472905       -14.963579239970331       -66.943205324249206     
   2192.8001242274745       -12.912731223396097       -67.690907606723911     
   2203.2763494169185       -10.831639485572829       -68.388280208582259     
   2214.1678267739871       -8.7210657987483966       -69.034344236008423     
   2225.4788452895132       -6.5817933549481484       -69.628100770517449     
   2237.2134514413319       -4.4146297035964173       -70.168529793216337     
   2249.3754152749134       -2.2204099187900539       -70.654589245470433     
   2261.9681939594343        2.2084665496236766E-011  -71.085214244972363     
   2274.9948926707416        2.2456994909252130       -71.459316477656998     
   2288.4582226567204        4.5157495538795844       -71.775783787443274     
   2302.3604563466920        6.8091686355284873       -72.033479987403780     
   2316.7033793752471        9.1249282748592808       -72.231244917654323     
   2331.4882394023862        11.461948511743318       -72.367894776996636     
   2346.7156916266968        13.819093062335437       -72.442222757122735     
   2362.3857409067232        16.195164267599740       -72.453000009967099     
   2378.4976804282751        18.588897823896382       -72.398976980543367     
   2395.0500268825313        20.998957307629507       -72.278885139285180     
   2412.0404521520181        23.423928509468858       -72.091439149481147     
   2429.4657115392297        25.862313597629111       -71.835339506797879     
   2447.3215686164676        28.312525134164996       -71.509275689061141     
   2465.6027168257187        30.772879973224047       -71.111929855343504     
   2484.3026980146187        33.241593075716395       -70.641981133908573     
   2503.4138181591507        35.716771280919573       -70.098110538598192     
   2522.9270605959541        38.196407082124303       -69.479006552726290     
   2542.8319971673454        40.678372460542498       -68.783371418351180     
   2563.1166977702678        43.160412839294295       -68.009928166829241     
   2583.7676388966270        45.640141227334169       -67.157428423684451     
   2604.7696118562285        48.115032631579240       -66.224661016937276     
   2626.1056314846874        50.582418824189851       -65.210461412996622     
   2647.7568462561044        53.039483560782486       -64.113721997903667     
   2669.7024508431673        55.483258354195918       -62.933403214004748     
   2691.9196022940068        57.910618917080875       -61.668545552913514     
   2714.3833411237720        60.318282394839663       -60.318282394795972     
   2737.0665187471441        62.702805518035085       -58.881853671509880     