 VARIABLES = "x_1", "x_2", "x_3"
 ZONE F = POINT , I =         201  , J =         101
   92.831544500931656        0.0000000000000000        0.0000000000000000     
   92.758730386840952        0.0000000000000000        0.0000000000000000     
   92.683193119134842        0.0000000000000000        0.0000000000000000     
   92.605250184951828        0.0000000000000000        0.0000000000000000     
   92.525226809790027        0.0000000000000000        0.0000000000000000     
   92.443454401700365        0.0000000000000000        0.0000000000000000     
   92.360269007012263        0.0000000000000000        0.0000000000000000     
   92.276009787028542        0.0000000000000000        0.0000000000000000     
   92.191017524300221        0.0000000000000000        0.0000000000000000     
   92.105633166212513        0.0000000000000000        0.0000000000000000     
   92.020196412697345        0.0000000000000000        0.0000000000000000     
   91.935044353955703        0.0000000000000000        0.0000000000000000     
   91.850510163139433        0.0000000000000000        0.0000000000000000     
   91.766921848024126        0.0000000000000000        0.0000000000000000     
   91.684601064814814        0.0000000000000000        0.0000000000000000     
   91.603861996377915        0.0000000000000000        0.0000000000000000     
   91.525010296394683        0.0000000000000000        0.0000000000000000     
   91.448342100194765        0.0000000000000000        0.0000000000000000     
   91.374143102355035        0.0000000000000000        0.0000000000000000     
   91.302687700550464        0.0000000000000000        0.0000000000000000     
   91.234238204616048        0.0000000000000000        0.0000000000000000     
   91.169044109329690        0.0000000000000000        0.0000000000000000     
   91.107341429052866        0.0000000000000000        0.0000000000000000     
   91.049352092067423        0.0000000000000000        0.0000000000000000     
   90.995283392223314        0.0000000000000000        0.0000000000000000     
   90.945327495359493        0.0000000000000000        0.0000000000000000     
   90.899660997874577        0.0000000000000000        0.0000000000000000     
   90.858444534801436        0.0000000000000000        0.0000000000000000     
   90.821822434778539        0.0000000000000000        0.0000000000000000     
   90.789922419400042        0.0000000000000000        0.0000000000000000     
   90.762855344568621        0.0000000000000000        0.0000000000000000     
   90.740714981657561        0.0000000000000000        0.0000000000000000     
   90.723577836512248        0.0000000000000000        0.0000000000000000     
   90.711503004576201        0.0000000000000000        0.0000000000000000     
   90.704532060710179        0.0000000000000000        0.0000000000000000     
   90.702688982579659        0.0000000000000000        0.0000000000000000     
   90.705980106808838        0.0000000000000000        0.0000000000000000     
   90.714394117434622        0.0000000000000000        0.0000000000000000     
   90.727902066537496        0.0000000000000000        0.0000000000000000     
   90.746457427269576        0.0000000000000000        0.0000000000000000     
   90.769996179841726        0.0000000000000000        0.0000000000000000     
   90.798436931364265        0.0000000000000000        0.0000000000000000     
   90.831681070754541        0.0000000000000000        0.0000000000000000     
   90.869612960225169        0.0000000000000000        0.0000000000000000     
   90.912100165142917        0.0000000000000000        0.0000000000000000     
   90.958993724294501        0.0000000000000000        0.0000000000000000     
   91.010128462808851        0.0000000000000000        0.0000000000000000     
   91.065323350156262        0.0000000000000000        0.0000000000000000     
   91.124381905772523        0.0000000000000000        0.0000000000000000     
   91.187092654932613        0.0000000000000000        0.0000000000000000     
   91.253229637518771       -0.0000000000000000        0.0000000000000000     
   91.322552972289245       -0.0000000000000000        0.0000000000000000     
   91.394809479149444       -0.0000000000000000        0.0000000000000000     
   91.469733361754876       -0.0000000000000000        0.0000000000000000     
   91.547046952530735       -0.0000000000000000        0.0000000000000000     
   91.626461521874063       -0.0000000000000000        0.0000000000000000     
   91.707678152909565       -0.0000000000000000        0.0000000000000000     
   91.790388682698691       -0.0000000000000000        0.0000000000000000     
   91.874276710253937       -0.0000000000000000        0.0000000000000000     
   91.959018671090135       -0.0000000000000000        0.0000000000000000     
   92.044284977353172       -0.0000000000000000        0.0000000000000000     
   92.129741221810662       -0.0000000000000000        0.0000000000000000     
   92.215049443177449       -0.0000000000000000        0.0000000000000000     
   92.299869449385909       -0.0000000000000000        0.0000000000000000     
   92.383860194513801       -0.0000000000000000        0.0000000000000000     
   92.466681204156387       -0.0000000000000000        0.0000000000000000     
   92.547994043096992       -0.0000000000000000        0.0000000000000000     
   92.627463818198663       -0.0000000000000000        0.0000000000000000     
   92.704760708533811       -0.0000000000000000        0.0000000000000000     
   92.779561513901854       -0.0000000000000000        0.0000000000000000     
   92.851551212076984       -0.0000000000000000        0.0000000000000000     
   92.920424514401503       -0.0000000000000000        0.0000000000000000     
   92.985887408707512       -0.0000000000000000        0.0000000000000000     
   93.047658678036484       -0.0000000000000000        0.0000000000000000     
   93.105471383243056       -0.0000000000000000        0.0000000000000000     
   93.159074297336602       -0.0000000000000000        0.0000000000000000     
   93.208233279339510       -0.0000000000000000        0.0000000000000000     
   93.252732575540961       -0.0000000000000000        0.0000000000000000     
   93.292376036299416       -0.0000000000000000        0.0000000000000000     
   93.326988237004500       -0.0000000000000000        0.0000000000000000     
   93.356415492445691       -0.0000000000000000        0.0000000000000000     
   93.380526754647647       -0.0000000000000000        0.0000000000000000     
   93.399214385210684       -0.0000000000000000        0.0000000000000000     
   93.412394794327270       -0.0000000000000000        0.0000000000000000     
   93.420008939913245       -0.0000000000000000        0.0000000000000000     
   93.422022681677660       -0.0000000000000000        0.0000000000000000     
   93.418426986431584       -0.0000000000000000        0.0000000000000000     
   93.409237982481400       -0.0000000000000000        0.0000000000000000     
   93.394496862533217       -0.0000000000000000        0.0000000000000000     
   93.374269636130506       -0.0000000000000000        0.0000000000000000     
   93.348646734220466       -0.0000000000000000        0.0000000000000000     
   93.317742469973240       -0.0000000000000000        0.0000000000000000     
   93.281694361431391       -0.0000000000000000        0.0000000000000000     
   93.240662322921096       -0.0000000000000000        0.0000000000000000     
   93.194827733388252       -0.0000000000000000        0.0000000000000000     
   93.144392390913652       -0.0000000000000000        0.0000000000000000     
   93.089577363593321       -0.0000000000000000        0.0000000000000000     
   93.030621747734870       -0.0000000000000000        0.0000000000000000     
   92.967781344905944       -0.0000000000000000        0.0000000000000000     
   92.901327269777852       -0.0000000000000000        0.0000000000000000     
   92.831544500931201       -0.0000000000000000       -0.0000000000000000     
   92.758730386840455       -0.0000000000000000       -0.0000000000000000     
   92.683193119134344       -0.0000000000000000       -0.0000000000000000     
   92.605250184951288       -0.0000000000000000       -0.0000000000000000     
   92.525226809789501       -0.0000000000000000       -0.0000000000000000     
   92.443454401699825       -0.0000000000000000       -0.0000000000000000     
   92.360269007011723       -0.0000000000000000       -0.0000000000000000     
   92.276009787027988       -0.0000000000000000       -0.0000000000000000     
   92.191017524299639       -0.0000000000000000       -0.0000000000000000     
   92.105633166211959       -0.0000000000000000       -0.0000000000000000     
   92.020196412696777       -0.0000000000000000       -0.0000000000000000     
   91.935044353955135       -0.0000000000000000       -0.0000000000000000     
   91.850510163138892       -0.0000000000000000       -0.0000000000000000     
   91.766921848023586       -0.0000000000000000       -0.0000000000000000     
   91.684601064814302       -0.0000000000000000       -0.0000000000000000     
   91.603861996377404       -0.0000000000000000       -0.0000000000000000     
   91.525010296394200       -0.0000000000000000       -0.0000000000000000     
   91.448342100194282       -0.0000000000000000       -0.0000000000000000     
   91.374143102354552       -0.0000000000000000       -0.0000000000000000     
   91.302687700550024       -0.0000000000000000       -0.0000000000000000     
   91.234238204615579       -0.0000000000000000       -0.0000000000000000     
   91.169044109329263       -0.0000000000000000       -0.0000000000000000     
   91.107341429052497       -0.0000000000000000       -0.0000000000000000     
   91.049352092067082       -0.0000000000000000       -0.0000000000000000     
   90.995283392222944       -0.0000000000000000       -0.0000000000000000     
   90.945327495359209       -0.0000000000000000       -0.0000000000000000     
   90.899660997874321       -0.0000000000000000       -0.0000000000000000     
   90.858444534801194       -0.0000000000000000       -0.0000000000000000     
   90.821822434778326       -0.0000000000000000       -0.0000000000000000     
   90.789922419399858       -0.0000000000000000       -0.0000000000000000     
   90.762855344568479       -0.0000000000000000       -0.0000000000000000     
   90.740714981657419       -0.0000000000000000       -0.0000000000000000     
   90.723577836512163       -0.0000000000000000       -0.0000000000000000     
   90.711503004576116       -0.0000000000000000       -0.0000000000000000     
   90.704532060710150       -0.0000000000000000       -0.0000000000000000     
   90.702688982579673       -0.0000000000000000       -0.0000000000000000     
   90.705980106808866       -0.0000000000000000       -0.0000000000000000     
   90.714394117434693       -0.0000000000000000       -0.0000000000000000     
   90.727902066537609       -0.0000000000000000       -0.0000000000000000     
   90.746457427269704       -0.0000000000000000       -0.0000000000000000     
   90.769996179841883       -0.0000000000000000       -0.0000000000000000     
   90.798436931364463       -0.0000000000000000       -0.0000000000000000     
   90.831681070754740       -0.0000000000000000       -0.0000000000000000     
   90.869612960225453       -0.0000000000000000       -0.0000000000000000     
   90.912100165143201       -0.0000000000000000       -0.0000000000000000     
   90.958993724294814       -0.0000000000000000       -0.0000000000000000     
   91.010128462809192       -0.0000000000000000       -0.0000000000000000     
   91.065323350156646       -0.0000000000000000       -0.0000000000000000     
   91.124381905772935       -0.0000000000000000       -0.0000000000000000     
   91.187092654933039       -0.0000000000000000       -0.0000000000000000     
   91.253229637519226        0.0000000000000000       -0.0000000000000000     
   91.322552972289728        0.0000000000000000       -0.0000000000000000     
   91.394809479149941        0.0000000000000000       -0.0000000000000000     
   91.469733361755360        0.0000000000000000       -0.0000000000000000     
   91.547046952531261        0.0000000000000000       -0.0000000000000000     
   91.626461521874575        0.0000000000000000       -0.0000000000000000     
   91.707678152910105        0.0000000000000000       -0.0000000000000000     
   91.790388682699259        0.0000000000000000       -0.0000000000000000     
   91.874276710254492        0.0000000000000000       -0.0000000000000000     
   91.959018671090689        0.0000000000000000       -0.0000000000000000     
   92.044284977353726        0.0000000000000000       -0.0000000000000000     
   92.129741221811244        0.0000000000000000       -0.0000000000000000     
   92.215049443178017        0.0000000000000000       -0.0000000000000000     
   92.299869449386492        0.0000000000000000       -0.0000000000000000     
   92.383860194514341        0.0000000000000000       -0.0000000000000000     
   92.466681204156927        0.0000000000000000       -0.0000000000000000     
   92.547994043097532        0.0000000000000000       -0.0000000000000000     
   92.627463818199175        0.0000000000000000       -0.0000000000000000     
   92.704760708534309        0.0000000000000000       -0.0000000000000000     
   92.779561513902323        0.0000000000000000       -0.0000000000000000     
   92.851551212077453        0.0000000000000000       -0.0000000000000000     
   92.920424514401958        0.0000000000000000       -0.0000000000000000     
   92.985887408707939        0.0000000000000000       -0.0000000000000000     
   93.047658678036839        0.0000000000000000       -0.0000000000000000     
   93.105471383243426        0.0000000000000000       -0.0000000000000000     
   93.159074297336929        0.0000000000000000       -0.0000000000000000     
   93.208233279339808        0.0000000000000000       -0.0000000000000000     
   93.252732575541245        0.0000000000000000       -0.0000000000000000     
   93.292376036299657        0.0000000000000000       -0.0000000000000000     
   93.326988237004713        0.0000000000000000       -0.0000000000000000     
   93.356415492445905        0.0000000000000000       -0.0000000000000000     
   93.380526754647775        0.0000000000000000       -0.0000000000000000     
   93.399214385210769        0.0000000000000000       -0.0000000000000000     
   93.412394794327312        0.0000000000000000       -0.0000000000000000     
   93.420008939913274        0.0000000000000000       -0.0000000000000000     
   93.422022681677646        0.0000000000000000       -0.0000000000000000     
   93.418426986431541        0.0000000000000000       -0.0000000000000000     
   93.409237982481343        0.0000000000000000       -0.0000000000000000     
   93.394496862533117        0.0000000000000000       -0.0000000000000000     
   93.374269636130379        0.0000000000000000       -0.0000000000000000     
   93.348646734220267        0.0000000000000000       -0.0000000000000000     
   93.317742469973012        0.0000000000000000       -0.0000000000000000     
   93.281694361431150        0.0000000000000000       -0.0000000000000000     
   93.240662322920798        0.0000000000000000       -0.0000000000000000     
   93.194827733387953        0.0000000000000000       -0.0000000000000000     
   93.144392390913310        0.0000000000000000       -0.0000000000000000     
   93.089577363592952        0.0000000000000000       -0.0000000000000000     
   93.030621747734486        0.0000000000000000       -0.0000000000000000     
   92.967781344905518        0.0000000000000000       -0.0000000000000000     
   92.901327269777397        0.0000000000000000       -0.0000000000000000     
   92.831544500930718        0.0000000000000000        0.0000000000000000     
   87.825287676295019        2.7600208558492780        0.0000000000000000     
   87.874860518924578        2.7602160727842491        8.6743284640457427E-002
   87.920912466947911        2.7575737853306319       0.17349183713147556     
   87.960990879515933        2.7520175039168149       0.26014224601269509     
   87.992688124529366        2.7434765552937974       0.34658168801175843     
   88.013675072216699        2.7318878426750621       0.43268852699152349     
   88.021735998808623        2.7171975836044564       0.51833316051622202     
   88.014804123084275        2.6993629759888167       0.60337911208560291     
   87.990996875123344        2.6783537397062140       0.68768435798430461     
   87.948649904242828        2.6541534804009022       0.77110286794500371     
   87.886348781929499        2.6267608238619506       0.85348632896578380     
   87.802957353820716        2.5961902739582938       0.93468601227679404     
   87.697641747712211        2.5624727544748871        1.0145547352777278     
   87.569889153613474        2.5256558051452620        1.0929488639029705     
   87.419520654043211        2.4858034142596308        1.1697302968661321     
   87.246697590567635        2.4429954837947703        1.2447683719934852     
   87.051921194398986        2.3973269372541406        1.3179416365826124     
   86.836025469859422        2.3489064944288427        1.3891394283968399     
   86.600163582925774        2.2978551501908613        1.4582632212724473     
   86.345788255840503        2.2443044053898555        1.5252276989052880     
   86.074626887127209        2.1883943062812681        1.5899615315582689     
   85.788652291275753        2.1302713542226339        1.6524078424465578     
   85.490050074720358        2.0700863494429549        1.7125243626348905     
   85.181183729898407        2.0079922315793319        1.7702832846813596     
   84.864558537136489        1.9441419756804572        1.8256708353476421     
   84.542785319083222        1.8786865959800063        1.8786865959802008     
   84.218545002042276        1.8117733015525166        1.9293426053417913     
   83.894554812887591        1.7435438386481636        1.9776622836126565     
   83.573536790506168        1.6741330447250342        2.0236792180318077     
   83.258189128280463        1.6036676295641239        2.0674358503994967     
   82.951160699514858        1.5322651898714472        2.1089821047066653     
   82.655028959927506        1.4600334558293133        2.1483739898553402     
   82.372281277407112        1.3870697614111132        2.1856722081711091     
   82.105299614072550        1.3134607250514079        2.2209407955627030     
   81.856348382113040        1.2392821234865459        2.2542458140985433     
   81.627565213904987        1.1645989391817262        2.2856541127386185     
   81.420954327973107        1.0894655606048314        2.3152321672150680     
   81.238382133816401        1.0139261145197531        2.3430450057664047     
   81.081574698026316       0.93801491025591777        2.3691552237097806     
   80.952116688660197       0.86175697736649437        2.3936220867428326     
   80.851451421537874       0.78516868002474327        2.4165007204184574     
   80.780881648180682       0.70825839375404509        2.4378413814176723     
   80.741570747945161       0.63102723249315140        2.4576888050197510     
   80.734544014350220       0.55346981643984228        2.4760816224838136     
   80.760689755919017       0.47557507349320444        2.4930518418540033     
   80.820759963775657       0.39732706934854239        2.5086243859222690     
   80.915370330914172       0.31870586332893441        2.5228166816726465     
   81.044999441067148       0.23968838881717891        2.5356382964381505     
   81.209986978388372       0.16024935864464795        2.5470906171820484     
   81.410530842986276        8.0362196968720462E-002   2.5571665707317508     
   81.646683092236231       -2.6533857444221712E-013   2.5658503844139644     
   81.918344664491315       -8.0863471606878248E-002   2.5731173883355742     
   82.225258881186846      -0.16225276582854520        2.5789338624985638     
   82.567003766359122      -0.24418967535010844        2.5832569339995834     
   82.942983270231977      -0.32669213503136574        2.5860345317098039     
   83.352417536643003      -0.40977308055303457        2.5872054080128741     
   83.794332413354084      -0.49343926997499976        2.5866992393377877     
   84.267548470061357      -0.57769007248388682        2.5844368192800600     
   84.770669861043658      -0.66251623176911545        2.5803303599565321     
   85.302073447065865      -0.74789861525251278        2.5742839187576223     
   85.859898672738510      -0.83380696478154792        2.5661939686891513     
   86.442038778346330      -0.92019866931413707        2.5559501308493737     
   87.046134005312581       -1.0070175854533334        2.5434360870575308     
   87.669567526746491       -1.0941929372453867        2.5285306890142967     
   88.309464892350974       -1.1816383321688237        2.5111092774069501     
   88.962697812494639       -1.2692509353637915        2.4910452198663884     
   89.625893110626663       -1.3569108484422499        2.4682116704780768     
   90.295447637089936       -1.4444807421659727        2.4424835455616858     
   90.967549851680801       -1.5318057933108800        2.4137397006964507     
   91.638208639212351       -1.6187139745655827        2.3818652826658662     
   92.303289716601469       -1.7050167417878577        2.3467542174967604     
   92.958559720274934       -1.7905101549189428        2.3083117826530781     
   93.599737732943012       -1.8749764570709953        2.2664571985048436     
   94.222553629418684       -1.9581861207644362        2.2211261624087331     
   94.822812209659176       -2.0399003513473226        2.1722732392247726     
   95.396461668065797       -2.1198740160184761        2.1198740160178176     
   95.939664551700801       -2.1978589437436287        2.0639269271446281     
   96.448869020644551       -2.2736075182073914        2.0044546597877200     
   96.920877975992809       -2.3468764645570328        1.9415050597904622     
   97.352913496415795       -2.4174307129505070        1.8751514734171335     
   97.742674046670928       -2.4850472096145926        1.8054924818854257     
   98.088382103478480       -2.5495185407325374        1.7326510110916271     
   98.388820184047773       -2.6106562369787647        1.6567728272400917     
   98.643353743213595       -2.6682936371855059        1.5780244580805882     
   98.851939995019578       -2.7222882079846036        1.4965906069484392     
   99.015122370473051       -2.7725232410931859        1.4126711506511425     
   99.134010994878295       -2.8189088793516142        1.3264778306143137     
   99.210250204088567       -2.8613824543998869        1.2382307582670034     
   99.245974672116660       -2.8999081505547881        1.1481548597448283     
   99.243756155287812       -2.9344760386963684        1.0564763816587621     
   99.206543146106171       -2.9651005488187989       0.96341956962161690     
   99.137595863654738       -2.9918184689202301       0.86920361568727811     
   99.040418991488224       -3.0146865703135615       0.77403995144256299     
   98.918694425790392       -3.0337789651015052       0.67812994195587906     
   98.776216042228526       -3.0491843009228816       0.58166301384511310     
   98.616828160726968       -3.0610028920439807       0.48481522988755588     
   98.444369015804611       -3.0693438756335603       0.38774830404553695     
   98.262620156615881       -3.0743224689470394       0.29060903533467680     
   98.075262331313226       -3.0760573884617926       0.19352912704757841     
   97.885838074770604       -3.0746684769275192        9.6625349550399225E-002
   97.697720930560251       -3.0702745697930647       -6.3500372620607856E-013
   97.514091004675009       -3.0629916192707056       -9.6258389516396509E-002
   97.337916371780310       -3.0529310828800709      -0.19207414322837071     
   97.171939732499595       -3.0401985739301072      -0.28738337754861243     
   97.018669647131034       -3.0248927641124341      -0.38213282275711463     
   96.880375640202274       -3.0071045231106410      -0.47627856689093095     
   96.759086473542609       -2.9869162766936657      -0.56978475295269160     
   96.656590915238027       -2.9644015629121583      -0.66262225525325624     
   96.574440380645754       -2.9396247654815650      -0.75476735563257968     
   96.513952883220284       -2.9126410039396697      -0.84620043566379832     
   96.476217801975523       -2.8834961614504047      -0.93690469686794253     
   96.462101044846221       -2.8522270329576282       -1.0268649175240672     
   96.472250259974217       -2.8188615785725553       -1.1160662518813889     
   96.507099817941096       -2.7834192694400199       -1.2044930754635688     
   96.566875355931160       -2.7459115157368714       -1.2921278786759560     
   96.651597739110784       -2.7063421688031748       -1.3789502100459758     
   96.761086355016289       -2.6647080916090498       -1.4649356700986258     
   96.894961713652890       -2.6209997937503933       -1.5500549570431927     
   97.052647379711473       -2.5752021288914508       -1.6342729660721687     
   97.233371314286856       -2.5272950539862640       -1.7175479450962905     
   97.436166752153326       -2.4772544506741467       -1.7998307111062666     
   97.659872787329562       -2.4250530099188654       -1.8810639330042311     
   97.903134884421107       -2.3706611812104583       -1.9611814886223922     
   98.164405575848875       -2.3140481874365535       -2.0401079056694509     
   98.441945644981985       -2.2551831058223986       -2.1177578984319458     
   98.733826131394792       -2.1940360141052064       -2.1940360141063420     
   99.037931525528649       -2.1305791993265650       -2.2688364045297735     
   99.351964544056358       -2.0647884242867391       -2.3420427406744491     
   99.673452891901206       -1.9966442438163021       -2.4135282884158267     
   99.999758419457919       -1.9261333596193038       -2.4831561646046501     
   100.32808907117715       -1.8532499985975728       -2.5507797921843696     
   100.65551399131844       -1.7779972953880940       -2.6162435718138659     
   100.97898210156529       -1.7003886554921273       -2.6793837850083082     
   101.29534439103556       -1.6204490710527917       -2.7400297400545979     
   101.60138006061786       -1.5382163573051930       -2.7980051667972625     
   101.89382654036319       -1.4537422742802975       -2.8531298598014336     
   102.16941325239245       -1.3670934958249887       -2.9052215614498564     
   102.42489882594975       -1.2783523867518660       -2.9540980674010173     
   102.65711129156747       -1.1876175492874972       -2.9995795268306926     
   102.86299059579649       -1.0950041022346471       -3.0414908994347152     
   103.03963259665254       -1.0006436606102165       -3.0796645208418769     
   103.18433353450919      -0.90468399005554745       -3.1139427185257778     
   103.29463383617406      -0.80728831898084852       -3.1441804122228274     
   103.36836001372700      -0.70863430196946386       -3.1702476269736310     
   103.40366337548835      -0.60891264002121870       -3.1920318438566708     
   103.39905428276552      -0.50832537617738538       -3.2094401137939603     
   103.35343076764143      -0.40708389822656116       -3.2224008637960067     
   103.26610047424153      -0.30540669273553639       -3.2308653327430261     
   103.13679509377516      -0.20351690575674919       -3.2348085850511845     
   102.96567672223775      -0.10163977446203426       -3.2342300648388971     
   102.75333586457528        1.0032294252641069E-012  -3.2291536697221703     
   102.50078112260087       0.10118086538481566       -3.2196273411621568     
   102.20942091650491       0.20168694465838746       -3.2057221862788174     
   101.88103788190993       0.30131040766803763       -3.1875311631296515     
   101.51775683840043       0.39985362736632207       -3.1651673766120316     
   101.12200742698289       0.49713106973651111       -3.1387620445344120     
   100.69648265321885       0.59297087832147810       -3.1084622024096582     
   100.24409464518109       0.68721612712257929       -3.0744282208284885     
   99.767928941455224       0.77972572874678137       -3.0368312108373816     
   99.271198569383472       0.87037499728098022       -2.9958503908058693     
   98.757199066622391       0.95905587680672677       -2.9516704832759153     
   98.229265451450445        1.0456768562338052       -2.9044792028522415     
   97.690731972001913        1.1301625989002733       -2.8544648870157707     
   97.144895274689858        1.2124533210070918       -2.8018143115417162     
   96.594981439536980        1.2925039564363792       -2.7467107216585513     
   96.044117145263428        1.3702831469859444       -2.6893320997890009     
   95.495305057905412        1.4457720967810241       -2.6298496811499321     
   94.951403389193814        1.5189633279035113       -2.5684267200066984     
   94.415109448334562        1.5898593714450209       -2.5052175022036725     
   93.888946914527850        1.6584714245800540       -2.4403665938320005     
   93.375256487159092        1.7248180001839337       -2.3740083115546571     
   92.876189524372776        1.7889235912649353       -2.3062663971141126     
   92.393704256102268        1.8508173682717892       -2.2372538767705632     
   91.929564151444609        1.9105319233580997       -2.1670730856928926     
   91.485338029236445        1.9681020720665650       -2.0958158374684901     
   91.062401521555785        2.0235637197270209       -2.0235637197255549     
   90.661939529660501        2.0769527971933552       -1.9503884981956168     