 VARIABLES = "x_1", "x_2", "x_3"
 ZONE F = POINT , I =         201  , J =         101
   2020.5217255066177        0.0000000000000000        0.0000000000000000     
   2020.5217255066177        0.0000000000000000        0.0000000000000000     
   2020.5217255066177        0.0000000000000000        0.0000000000000000     
   2020.5217255066177        0.0000000000000000        0.0000000000000000     
   2020.5217255066177        0.0000000000000000        0.0000000000000000     
   2020.5217255066177        0.0000000000000000        0.0000000000000000     
   2020.5217255066177        0.0000000000000000        0.0000000000000000     
   2020.5217255066177        0.0000000000000000        0.0000000000000000     
   2020.5217255066177        0.0000000000000000        0.0000000000000000     
   2020.5217255066177        0.0000000000000000        0.0000000000000000     
   2020.5217255066177        0.0000000000000000        0.0000000000000000     
   2020.5217255066177        0.0000000000000000        0.0000000000000000     
   2020.5217255066177        0.0000000000000000        0.0000000000000000     
   2020.5217255066177        0.0000000000000000        0.0000000000000000     
   2020.5217255066177        0.0000000000000000        0.0000000000000000     
   2020.5217255066177        0.0000000000000000        0.0000000000000000     
   2020.5217255066177        0.0000000000000000        0.0000000000000000     
   2020.5217255066177        0.0000000000000000        0.0000000000000000     
   2020.5217255066177        0.0000000000000000        0.0000000000000000     
   2020.5217255066177        0.0000000000000000        0.0000000000000000     
   2020.5217255066177        0.0000000000000000        0.0000000000000000     
   2020.5217255066177        0.0000000000000000        0.0000000000000000     
   2020.5217255066177        0.0000000000000000        0.0000000000000000     
   2020.5217255066177        0.0000000000000000        0.0000000000000000     
   2020.5217255066177        0.0000000000000000        0.0000000000000000     
   2020.5217255066177        0.0000000000000000        0.0000000000000000     
   2020.5217255066177        0.0000000000000000        0.0000000000000000     
   2020.5217255066177        0.0000000000000000        0.0000000000000000     
   2020.5217255066177        0.0000000000000000        0.0000000000000000     
   2020.5217255066177        0.0000000000000000        0.0000000000000000     
   2020.5217255066177        0.0000000000000000        0.0000000000000000     
   2020.5217255066177        0.0000000000000000        0.0000000000000000     
   2020.5217255066177        0.0000000000000000        0.0000000000000000     
   2020.5217255066177        0.0000000000000000        0.0000000000000000     
   2020.5217255066177        0.0000000000000000        0.0000000000000000     
   2020.5217255066177        0.0000000000000000        0.0000000000000000     
   2020.5217255066177        0.0000000000000000        0.0000000000000000     
   2020.5217255066177        0.0000000000000000        0.0000000000000000     
   2020.5217255066177        0.0000000000000000        0.0000000000000000     
   2020.5217255066177        0.0000000000000000        0.0000000000000000     
   2020.5217255066177        0.0000000000000000        0.0000000000000000     
   2020.5217255066177        0.0000000000000000        0.0000000000000000     
   2020.5217255066177        0.0000000000000000        0.0000000000000000     
   2020.5217255066177        0.0000000000000000        0.0000000000000000     
   2020.5217255066177        0.0000000000000000        0.0000000000000000     
   2020.5217255066177        0.0000000000000000        0.0000000000000000     
   2020.5217255066177        0.0000000000000000        0.0000000000000000     
   2020.5217255066177        0.0000000000000000        0.0000000000000000     
   2020.5217255066177        0.0000000000000000        0.0000000000000000     
   2020.5217255066177        0.0000000000000000        0.0000000000000000     
   2020.5217255066177       -0.0000000000000000        0.0000000000000000     
   2020.5217255066177       -0.0000000000000000        0.0000000000000000     
   2020.5217255066177       -0.0000000000000000        0.0000000000000000     
   2020.5217255066177       -0.0000000000000000        0.0000000000000000     
   2020.5217255066177       -0.0000000000000000        0.0000000000000000     
   2020.5217255066177       -0.0000000000000000        0.0000000000000000     
   2020.5217255066177       -0.0000000000000000        0.0000000000000000     
   2020.5217255066177       -0.0000000000000000        0.0000000000000000     
   2020.5217255066177       -0.0000000000000000        0.0000000000000000     
   2020.5217255066177       -0.0000000000000000        0.0000000000000000     
   2020.5217255066177       -0.0000000000000000        0.0000000000000000     
   2020.5217255066177       -0.0000000000000000        0.0000000000000000     
   2020.5217255066177       -0.0000000000000000        0.0000000000000000     
   2020.5217255066177       -0.0000000000000000        0.0000000000000000     
   2020.5217255066177       -0.0000000000000000        0.0000000000000000     
   2020.5217255066177       -0.0000000000000000        0.0000000000000000     
   2020.5217255066177       -0.0000000000000000        0.0000000000000000     
   2020.5217255066177       -0.0000000000000000        0.0000000000000000     
   2020.5217255066177       -0.0000000000000000        0.0000000000000000     
   2020.5217255066177       -0.0000000000000000        0.0000000000000000     
   2020.5217255066177       -0.0000000000000000        0.0000000000000000     
   2020.5217255066177       -0.0000000000000000        0.0000000000000000     
   2020.5217255066177       -0.0000000000000000        0.0000000000000000     
   2020.5217255066177       -0.0000000000000000        0.0000000000000000     
   2020.5217255066177       -0.0000000000000000        0.0000000000000000     
   2020.5217255066177       -0.0000000000000000        0.0000000000000000     
   2020.5217255066177       -0.0000000000000000        0.0000000000000000     
   2020.5217255066177       -0.0000000000000000        0.0000000000000000     
   2020.5217255066177       -0.0000000000000000        0.0000000000000000     
   2020.5217255066177       -0.0000000000000000        0.0000000000000000     
   2020.5217255066177       -0.0000000000000000        0.0000000000000000     
   2020.5217255066177       -0.0000000000000000        0.0000000000000000     
   2020.5217255066177       -0.0000000000000000        0.0000000000000000     
   2020.5217255066177       -0.0000000000000000        0.0000000000000000     
   2020.5217255066177       -0.0000000000000000        0.0000000000000000     
   2020.5217255066177       -0.0000000000000000        0.0000000000000000     
   2020.5217255066177       -0.0000000000000000        0.0000000000000000     
   2020.5217255066177       -0.0000000000000000        0.0000000000000000     
   2020.5217255066177       -0.0000000000000000        0.0000000000000000     
   2020.5217255066177       -0.0000000000000000        0.0000000000000000     
   2020.5217255066177       -0.0000000000000000        0.0000000000000000     
   2020.5217255066177       -0.0000000000000000        0.0000000000000000     
   2020.5217255066177       -0.0000000000000000        0.0000000000000000     
   2020.5217255066177       -0.0000000000000000        0.0000000000000000     
   2020.5217255066177       -0.0000000000000000        0.0000000000000000     
   2020.5217255066177       -0.0000000000000000        0.0000000000000000     
   2020.5217255066177       -0.0000000000000000        0.0000000000000000     
   2020.5217255066177       -0.0000000000000000        0.0000000000000000     
   2020.5217255066177       -0.0000000000000000        0.0000000000000000     
   2020.5217255066177       -0.0000000000000000        0.0000000000000000     
   2020.5217255066177       -0.0000000000000000       -0.0000000000000000     
   2020.5217255066177       -0.0000000000000000       -0.0000000000000000     
   2020.5217255066177       -0.0000000000000000       -0.0000000000000000     
   2020.5217255066177       -0.0000000000000000       -0.0000000000000000     
   2020.5217255066177       -0.0000000000000000       -0.0000000000000000     
   2020.5217255066177       -0.0000000000000000       -0.0000000000000000     
   2020.5217255066177       -0.0000000000000000       -0.0000000000000000     
   2020.5217255066177       -0.0000000000000000       -0.0000000000000000     
   2020.5217255066177       -0.0000000000000000       -0.0000000000000000     
   2020.5217255066177       -0.0000000000000000       -0.0000000000000000     
   2020.5217255066177       -0.0000000000000000       -0.0000000000000000     
   2020.5217255066177       -0.0000000000000000       -0.0000000000000000     
   2020.5217255066177       -0.0000000000000000       -0.0000000000000000     
   2020.5217255066177       -0.0000000000000000       -0.0000000000000000     
   2020.5217255066177       -0.0000000000000000       -0.0000000000000000     
   2020.5217255066177       -0.0000000000000000       -0.0000000000000000     
   2020.5217255066177       -0.0000000000000000       -0.0000000000000000     
   2020.5217255066177       -0.0000000000000000       -0.0000000000000000     
   2020.5217255066177       -0.0000000000000000       -0.0000000000000000     
   2020.5217255066177       -0.0000000000000000       -0.0000000000000000     
   2020.5217255066177       -0.0000000000000000       -0.0000000000000000     
   2020.5217255066177       -0.0000000000000000       -0.0000000000000000     
   2020.5217255066177       -0.0000000000000000       -0.0000000000000000     
   2020.5217255066177       -0.0000000000000000       -0.0000000000000000     
   2020.5217255066177       -0.0000000000000000       -0.0000000000000000     
   2020.5217255066177       -0.0000000000000000       -0.0000000000000000     
   2020.5217255066177       -0.0000000000000000       -0.0000000000000000     
   2020.5217255066177       -0.0000000000000000       -0.0000000000000000     
   2020.5217255066177       -0.0000000000000000       -0.0000000000000000     
   2020.5217255066177       -0.0000000000000000       -0.0000000000000000     
   2020.5217255066177       -0.0000000000000000       -0.0000000000000000     
   2020.5217255066177       -0.0000000000000000       -0.0000000000000000     
   2020.5217255066177       -0.0000000000000000       -0.0000000000000000     
   2020.5217255066177       -0.0000000000000000       -0.0000000000000000     
   2020.5217255066177       -0.0000000000000000       -0.0000000000000000     
   2020.5217255066177       -0.0000000000000000       -0.0000000000000000     
   2020.5217255066177       -0.0000000000000000       -0.0000000000000000     
   2020.5217255066177       -0.0000000000000000       -0.0000000000000000     
   2020.5217255066177       -0.0000000000000000       -0.0000000000000000     
   2020.5217255066177       -0.0000000000000000       -0.0000000000000000     
   2020.5217255066177       -0.0000000000000000       -0.0000000000000000     
   2020.5217255066177       -0.0000000000000000       -0.0000000000000000     
   2020.5217255066177       -0.0000000000000000       -0.0000000000000000     
   2020.5217255066177       -0.0000000000000000       -0.0000000000000000     
   2020.5217255066177       -0.0000000000000000       -0.0000000000000000     
   2020.5217255066177       -0.0000000000000000       -0.0000000000000000     
   2020.5217255066177       -0.0000000000000000       -0.0000000000000000     
   2020.5217255066177       -0.0000000000000000       -0.0000000000000000     
   2020.5217255066177       -0.0000000000000000       -0.0000000000000000     
   2020.5217255066177       -0.0000000000000000       -0.0000000000000000     
   2020.5217255066177        0.0000000000000000       -0.0000000000000000     
   2020.5217255066177        0.0000000000000000       -0.0000000000000000     
   2020.5217255066177        0.0000000000000000       -0.0000000000000000     
   2020.5217255066177        0.0000000000000000       -0.0000000000000000     
   2020.5217255066177        0.0000000000000000       -0.0000000000000000     
   2020.5217255066177        0.0000000000000000       -0.0000000000000000     
   2020.5217255066177        0.0000000000000000       -0.0000000000000000     
   2020.5217255066177        0.0000000000000000       -0.0000000000000000     
   2020.5217255066177        0.0000000000000000       -0.0000000000000000     
   2020.5217255066177        0.0000000000000000       -0.0000000000000000     
   2020.5217255066177        0.0000000000000000       -0.0000000000000000     
   2020.5217255066177        0.0000000000000000       -0.0000000000000000     
   2020.5217255066177        0.0000000000000000       -0.0000000000000000     
   2020.5217255066177        0.0000000000000000       -0.0000000000000000     
   2020.5217255066177        0.0000000000000000       -0.0000000000000000     
   2020.5217255066177        0.0000000000000000       -0.0000000000000000     
   2020.5217255066177        0.0000000000000000       -0.0000000000000000     
   2020.5217255066177        0.0000000000000000       -0.0000000000000000     
   2020.5217255066177        0.0000000000000000       -0.0000000000000000     
   2020.5217255066177        0.0000000000000000       -0.0000000000000000     
   2020.5217255066177        0.0000000000000000       -0.0000000000000000     
   2020.5217255066177        0.0000000000000000       -0.0000000000000000     
   2020.5217255066177        0.0000000000000000       -0.0000000000000000     
   2020.5217255066177        0.0000000000000000       -0.0000000000000000     
   2020.5217255066177        0.0000000000000000       -0.0000000000000000     
   2020.5217255066177        0.0000000000000000       -0.0000000000000000     
   2020.5217255066177        0.0000000000000000       -0.0000000000000000     
   2020.5217255066177        0.0000000000000000       -0.0000000000000000     
   2020.5217255066177        0.0000000000000000       -0.0000000000000000     
   2020.5217255066177        0.0000000000000000       -0.0000000000000000     
   2020.5217255066177        0.0000000000000000       -0.0000000000000000     
   2020.5217255066177        0.0000000000000000       -0.0000000000000000     
   2020.5217255066177        0.0000000000000000       -0.0000000000000000     
   2020.5217255066177        0.0000000000000000       -0.0000000000000000     
   2020.5217255066177        0.0000000000000000       -0.0000000000000000     
   2020.5217255066177        0.0000000000000000       -0.0000000000000000     
   2020.5217255066177        0.0000000000000000       -0.0000000000000000     
   2020.5217255066177        0.0000000000000000       -0.0000000000000000     
   2020.5217255066177        0.0000000000000000       -0.0000000000000000     
   2020.5217255066177        0.0000000000000000       -0.0000000000000000     
   2020.5217255066177        0.0000000000000000       -0.0000000000000000     
   2020.5217255066177        0.0000000000000000       -0.0000000000000000     
   2020.5217255066177        0.0000000000000000       -0.0000000000000000     
   2020.5217255066177        0.0000000000000000       -0.0000000000000000     
   2020.5217255066177        0.0000000000000000       -0.0000000000000000     
   2020.5217255066177        0.0000000000000000       -0.0000000000000000     
   2020.5217255066177        0.0000000000000000       -0.0000000000000000     
   2020.5217255066177        0.0000000000000000       -0.0000000000000000     
   2020.5217255066177        0.0000000000000000       -0.0000000000000000     
   2020.5217255066177        0.0000000000000000       -0.0000000000000000     
   2020.5217255066177        0.0000000000000000        0.0000000000000000     
   2020.8619458715812        63.508145147848779        0.0000000000000000     
   2029.1698508188238        63.737765312675791        2.0030399697249601     
   2037.5774187816410        63.907094659944200        4.0206935956781518     
   2046.0742789391343        64.015106851937063        6.0512092134240083     
   2054.6495593654013        64.060810228757404        8.0927623389535501     
   2063.2918961661280        64.043252851346452        10.143454759423950     
   2071.9894454843065        63.961527804906034        12.201313978273177     
   2080.7298985161333        63.814778741458348        14.264293048938915     
   2089.5004996627426        63.602205636244129        16.330270830522881     
   2098.2880679250939        63.323070728552523        18.397052697380467     
   2107.0790216277237        62.976704613436993        20.462371732748856     
   2115.8594065323787        62.562512446666418        22.523890434130529     
   2124.6149273747114        62.079980221251098        24.579202955203652     
   2133.3309828264341        61.528681070044478        26.625837905527906     
   2141.9927038517430        60.908281545325721        28.661261725251798     
   2150.5849953907295        60.218547822999227        30.682882647417788     
   2159.0925812642095        59.459351776182245        32.688055255325203     
   2167.5000521544562        58.630676860580394        34.674085636785144     
   2175.7919164750033        57.732623752242787        36.638237131031929     
   2183.9526539008552        56.765415677133710        38.577736657606863     
   2191.9667712884943        55.729403371516312        40.489781609775470     
   2199.8188606738618        54.625069612484879        42.371547288067148     
   2207.4936589967169        53.453033259156541        44.220194842437998     
   2214.9761091622081        52.214052747078831        46.032879684461363     
   2222.2514220159387        50.909028981352563        47.806760323969030     
   2229.3051387780893        49.539007577816108        49.539007577821238     
   2236.1231934559501        48.105180406377229        51.226814092108683     
   2242.6919747334168        46.608886396181894        52.867404113213489     
   2248.9983868210002        45.051611568723793        54.458043437904799     
   2255.0299087415920        43.434988272156275        55.996049468146289     
   2260.7746515257127        41.760793597875001        57.478801292650992     
   2266.2214127959783        40.030946968792925        58.903749714545768     
   2271.3597282338101        38.247506897495668        60.268427142873833     
   2276.1799194424484        36.412666921513981        61.570457265147205     
   2280.6731377486512        34.528750732123868        62.807564418794954     
   2284.8314035209914        32.598206522229624        63.977582581165812     
   2288.6476406248962        30.623600587836513        65.078463900725666     
   2292.1157056827951        28.607610226216604        66.108286696212616     
   2295.2304118615039        26.553015981956857        67.065262855724953     
   2297.9875469669837        24.462693299501023        67.947744573931175     
   2300.3838856882849        22.339603647423367        68.754230372714503     
   2302.4171958965135        20.186785185379112        69.483370358468619     
   2304.0862389700155        18.007343049364753        70.133970677809529     
   2305.3907641824885        15.804439334510796        70.704997142506230     
   2306.3314972552771        13.581282857065776        71.195578003799326     
   2306.9101232375770        11.341118778483349        71.605005865802013     
   2307.1292639375483        9.0872181745887843        71.932738737191940     
   2306.9924501825903        6.8228676317007322        72.178400229743204     
   2306.5040892371953        4.5513589493602638        72.341778921249059     
   2305.6694277513652        2.2759790260435984        72.422826908909059     
   2304.4945106507766       -7.4892361221240666E-012   72.421657587158393     
   2302.9861364113244       -2.2733302878061488        72.338542691090140     
   2301.1518091851631       -4.5407974473046027        72.173908652968294     
   2298.9996882625960       -6.7992292550111388        71.928332324770196     
   2296.5385353643160       -9.0455038837413131        71.602536124184041     
   2293.7776602616400       -11.276557605973903        71.197382664985653     
   2290.7268652188709       -13.489391937748536        70.713868935221313     
   2287.3963887420782       -15.681080197571694        70.153120088138806     
   2283.7968491030720       -17.848773462261732        69.516382911370940     
   2279.9391880865674       -19.989705908942760        68.805019039527735     
   2275.8346153833186       -22.101199539384712        68.020497974160861     
   2271.4945540229169       -24.180668289487379        67.164389973098025     
   2266.9305872077821       -26.225621532840993        66.238358868492597     
   2262.1544068752905       -28.233666992897145        65.244154869682163     
   2257.1777642787929       -30.202513083305604        64.183607403198025     
   2252.0124228409586       -32.129970700374969        63.058618038107639     
   2246.6701134953678       -34.013954495382215        61.871153540405714     
   2241.1624926948116       -35.852483657576734        60.623239095484337     
   2235.5011032282323       -37.643682241207451        59.316951732904108     
   2229.6973379527658       -39.385779071759501        57.954413982833628     
   2223.7624065136415       -41.077107267849350        56.537787788705685     
   2217.7073050928693       -42.716103415925005        55.069268695921387     
   2211.5427891980216       -44.301306435092656        53.551080331875774     
   2205.2793494753168       -45.831356169089140        51.985469188238959     
   2198.9271905065220       -47.304991741686699        50.374699712338355     
   2192.4962125272468       -48.721049710707462        48.721049710692327     
   2185.9959959848666       -50.078462054388403        47.026806064265351     
   2179.4357888376039       -51.376254022126410        45.294260751866155     
   2172.8244964821965       -52.613541879698566        43.525707175308270     
   2166.1706741859466       -53.789530576941658        41.723436777496225     
   2159.4825218896472       -54.903511363633797        39.889735942491676     
   2152.7678812408462       -55.954859376994463        38.026883164843809     
   2146.0342347118763       -56.943031221842794        36.137146474026821     
   2139.2887066539702       -57.867562562067818        34.222781098699251     
   2132.5380661373292       -58.728065739695481        32.286027354667141     
   2125.7887314271447       -59.524227435518767        30.329108739878137     
   2119.0467759469752       -60.255806383007659        28.354230219471511     
   2112.3179355835105       -60.922631145060464        26.363576683841202     
   2105.6076171903601       -61.524597961110878        24.359311562809999     
   2098.9209081529234       -62.061668670179650        22.343575579340612     
   2092.2625868815644       -62.533868713669236        20.318485626700966     
   2085.6371341059507       -62.941285220046971        18.286133753634417     
   2079.0487448495587       -63.284065172057588        16.248586242838673     
   2072.5013409697167       -63.562413655747655        14.207882768910146     
   2065.9985841551888       -63.776592189375947        12.166035622843559     
   2059.5438892800148       -63.926917129223156        10.125028991172137     
   2053.1404380190525       -64.013758148398225        8.0868182788737215     
   2046.7911926374366       -64.037536783966118        6.0533294662388455     
   2040.4989098726996       -63.998725047081976        4.0264584909819563     
   2034.2661548348683       -63.897844090313100        2.0080706479656540     
   2028.0953148560529       -63.735462925944525       -1.3181966475451726E-011
   2021.9886132271745       -63.512197188801274       -1.9959512058663265     
   2015.9481227652914       -63.228707936963630       -3.9780131207456582     
   2009.9757791605230       -62.885700483697548       -5.9444488789273677     
   2004.0733940569346       -62.483923253964484       -7.8935551875613061     
   1998.2426678266906       -62.024166658998830       -9.8236629228951227     
   1992.4852020015687       -61.507261982646703       -11.733137733734040     
   1986.8025113303602       -60.934080273433324       -13.620380652107281     
   1981.1960354348460       -60.305531236661807       -15.483828710381916     
   1975.6671500409373       -59.622562121236165       -17.321955563400756     
   1970.2171777651749       -58.886156596337884       -19.133272113620279     
   1964.8473984401674       -58.097333613561531       -20.916327136691976     
   1959.5590589656460       -57.257146250623059       -22.669707904464452     
   1954.3533826746523       -56.366680533286861       -24.392040801984614     
   1949.2315782070609       -55.427054232711875       -26.081991934744511     
   1944.1948478850200       -54.439415635981106       -27.738267722153623     
   1939.2443955871040       -53.404942288151169       -29.359615473014191     
   1934.3814341199752       -52.324839704732142       -30.944823938637271     
   1929.6071920881898       -51.200340054078119       -32.492723839158089     
   1924.9229202643949       -50.032700809729000       -34.002188358587517     
   1920.3298974636516       -48.823203373292863       -35.472133604170594     
   1915.8294359269271       -47.573151668988551       -36.901519025709213     
   1911.4228862199614       -46.283870711477782       -38.289347790642388     
   1907.1116416547081       -44.956705149101239       -39.634667110857919     
   1902.8971422414870       -43.593017785091632       -40.936568517435717     
   1898.7808781806709       -42.194188079763116       -42.194188079784958     
   1894.7643929034141       -40.761610637072444       -43.406706565937377     
   1890.8492856714283       -39.296693679307623       -44.573349541090316     
   1887.0372137462257       -37.800857513984006       -45.693387401852107     
   1883.3298941385369       -36.275532997314535       -46.766135344026580     
   1879.7291049488620       -34.722159998870012       -47.790953262179102     
   1876.2366863101554       -33.142185872252384       -48.767245579647714     
   1872.8545409437465       -31.537063936776377       -49.694461008099886     
   1869.5846343394778       -29.908251975281210       -50.572092236181987     
   1866.4289945709068       -28.257210753286643       -51.399675547260074     
   1863.3897117562385       -26.585402564756468       -52.176790366710676     
   1860.4689371752936       -24.894289809746120       -52.903058739674165     
   1857.6688820525171       -23.185333609183438       -53.578144740641996     
   1854.9918160155544       -21.459992461971009       -54.201753816696396     
   1852.4400652384579       -19.719720949497852       -54.773632066665400     
   1850.0160102780223       -17.965968492518176       -55.293565458886931     
   1847.7220836111478       -16.200178165186557       -55.761378990696599     
   1845.5607668804696       -14.423785570845144       -56.176935793157966     
   1843.5345878547944       -12.638217783928859       -56.540136184944274     
   1841.6461171101419       -10.844892362103577       -56.850916679650965     
   1839.8979644363999       -9.0452164324681661       -57.109248951170372     
   1838.2927749737930       -7.2405858553497513       -57.315138762090761     
   1836.8332250825397       -5.4323844688910032       -57.468624860392104     
   1835.5220179481605       -3.6219834172813088       -57.569777849995916     
   1834.3618789241004       -1.8107405651162216       -57.618699040992020     
   1833.3555506123544        1.7899917505059730E-011  -57.615519285602176     
   1832.5057876819540        1.8089083750354020       -57.560397806156793     
   1831.8153514242711        3.6146691576395749       -57.453521021550465     
   1831.2870040431933        5.4159816705539203       -57.295101378806102     
   1830.9235026774143        7.2115600932869413       -57.085376196518560     
   1830.7275931512183        9.0001335014692749       -56.824606527061384     
   1830.7020034493819        10.780445814266670       -56.513076044529868     
   1830.8494369110529        12.551255650839000       -56.151089965456386     
   1831.1725651368154        14.311336097297062       -55.738974009371844     
   1831.6740206025274        16.059474386090994       -55.277073406298442     
   1832.3563889730131        17.794471490259770       -54.765751958245190     
   1833.2222011082642        19.515141635466652       -54.205391161736927     
   1834.2739247545142        21.220311733253205       -53.596389398340932     
   1835.5139559123559        22.908820739452956       -52.939161200060369     
   1836.9446098740787        24.579518942222474       -52.234136596343262     
   1838.5681119224926        26.231267184670099       -51.481760549302550     
   1840.3865876838729        27.862936027587665       -50.682492483565071     
   1842.4020531281533        29.473404858324578       -49.836805916952834     
   1844.6164042102448        31.061560952377896       -48.945188197957691     
   1847.0314061473571        32.626298494815877       -48.008140355689740     
   1849.6486823284249        34.166517569194475       -47.026177067665230     
   1852.4697028533208        35.681123122177638       -45.999826750444321     
   1855.4957727013493        37.169023912619302       -44.929631777733526     
   1858.7280195307146        38.629131454419102       -43.816148830125478     
   1862.1673811131782        40.060358963011019       -42.659949380161827     
   1865.8145924110609        41.461620315894521       -41.461620315864494     
   1869.6701723069971        42.831829038155384       -40.221764705287228     