 VARIABLES = "x_1", "x_2", "x_3"
 ZONE F = POINT , I =         201  , J =         101
   221.32229666033675        0.0000000000000000        0.0000000000000000     
   220.89536846643938        0.0000000000000000        0.0000000000000000     
   220.53444744873187        0.0000000000000000        0.0000000000000000     
   220.23999570890552        0.0000000000000000        0.0000000000000000     
   220.01238094391732        0.0000000000000000        0.0000000000000000     
   219.85188169762608        0.0000000000000000        0.0000000000000000     
   219.75869141330838        0.0000000000000000        0.0000000000000000     
   219.73292128709673        0.0000000000000000        0.0000000000000000     
   219.77460192307984        0.0000000000000000        0.0000000000000000     
   219.88368379076462        0.0000000000000000        0.0000000000000000     
   220.06003648512740        0.0000000000000000        0.0000000000000000     
   220.30344678889233        0.0000000000000000        0.0000000000000000     
   220.61361553628069        0.0000000000000000        0.0000000000000000     
   220.99015327757328        0.0000000000000000        0.0000000000000000     
   221.43257474475607        0.0000000000000000        0.0000000000000000     
   221.94029212059291        0.0000000000000000        0.0000000000000000     
   222.51260711705038        0.0000000000000000        0.0000000000000000     
   223.14870187444458        0.0000000000000000        0.0000000000000000     
   223.84762870039262        0.0000000000000000        0.0000000000000000     
   224.60829867801689        0.0000000000000000        0.0000000000000000     
   225.42946918631594        0.0000000000000000        0.0000000000000000     
   226.30973039258322        0.0000000000000000        0.0000000000000000     
   227.24749079766539        0.0000000000000000        0.0000000000000000     
   228.24096194008678        0.0000000000000000        0.0000000000000000     
   229.28814239498283        0.0000000000000000        0.0000000000000000     
   230.38680123863830        0.0000000000000000        0.0000000000000000     
   231.53446118936634        0.0000000000000000        0.0000000000000000     
   232.72838168045871        0.0000000000000000        0.0000000000000000     
   233.96554217072938        0.0000000000000000        0.0000000000000000     
   235.24262605221543        0.0000000000000000        0.0000000000000000     
   236.55600557196871        0.0000000000000000        0.0000000000000000     
   237.90172824422035        0.0000000000000000        0.0000000000000000     
   239.27550528865879        0.0000000000000000        0.0000000000000000     
   240.67270268769397        0.0000000000000000        0.0000000000000000     
   242.08833550734016        0.0000000000000000        0.0000000000000000     
   243.51706616904750        0.0000000000000000        0.0000000000000000     
   244.95320738919412        0.0000000000000000        0.0000000000000000     
   246.39073051421377        0.0000000000000000        0.0000000000000000     
   247.82327996737729        0.0000000000000000        0.0000000000000000     
   249.24419448282933        0.0000000000000000        0.0000000000000000     
   250.64653572862551        0.0000000000000000        0.0000000000000000     
   252.02312480890745        0.0000000000000000        0.0000000000000000     
   253.36658698283142        0.0000000000000000        0.0000000000000000     
   254.66940474304090        0.0000000000000000        0.0000000000000000     
   255.92397916023430        0.0000000000000000        0.0000000000000000     
   257.12269912648912        0.0000000000000000        0.0000000000000000     
   258.25801782546540        0.0000000000000000        0.0000000000000000     
   259.32253543293251        0.0000000000000000        0.0000000000000000     
   260.30908672016375        0.0000000000000000        0.0000000000000000     
   261.21083191258720        0.0000000000000000        0.0000000000000000     
   262.02134886586987       -0.0000000000000000        0.0000000000000000     
   262.73472438163134       -0.0000000000000000        0.0000000000000000     
   263.34564231509256       -0.0000000000000000        0.0000000000000000     
   263.84946604485668       -0.0000000000000000        0.0000000000000000     
   264.24231289444702       -0.0000000000000000        0.0000000000000000     
   264.52111822431198       -0.0000000000000000        0.0000000000000000     
   264.68368715296054       -0.0000000000000000        0.0000000000000000     
   264.72873221023207       -0.0000000000000000        0.0000000000000000     
   264.65589566022783       -0.0000000000000000        0.0000000000000000     
   264.46575573490748       -0.0000000000000000        0.0000000000000000     
   264.15981656502061       -0.0000000000000000        0.0000000000000000     
   263.74048215266521       -0.0000000000000000        0.0000000000000000     
   263.21101526810975       -0.0000000000000000        0.0000000000000000     
   262.57548264296770       -0.0000000000000000        0.0000000000000000     
   261.83868824672783       -0.0000000000000000        0.0000000000000000     
   261.00609675436260       -0.0000000000000000        0.0000000000000000     
   260.08374952682510       -0.0000000000000000        0.0000000000000000     
   259.07817552907983       -0.0000000000000000        0.0000000000000000     
   257.99629960482162       -0.0000000000000000        0.0000000000000000     
   256.84535042280629       -0.0000000000000000        0.0000000000000000     
   255.63277022158385       -0.0000000000000000        0.0000000000000000     
   254.36612822576612       -0.0000000000000000        0.0000000000000000     
   253.05303930786985       -0.0000000000000000        0.0000000000000000     
   251.70108914542681       -0.0000000000000000        0.0000000000000000     
   250.31776679218964       -0.0000000000000000        0.0000000000000000     
   248.91040526120730       -0.0000000000000000        0.0000000000000000     
   247.48613041941726       -0.0000000000000000        0.0000000000000000     
   246.05181822788973       -0.0000000000000000        0.0000000000000000     
   244.61406013516378       -0.0000000000000000        0.0000000000000000     
   243.17913624628511       -0.0000000000000000        0.0000000000000000     
   241.75299574748510       -0.0000000000000000        0.0000000000000000     
   240.34124396407381       -0.0000000000000000        0.0000000000000000     
   238.94913536357603       -0.0000000000000000        0.0000000000000000     
   237.58157178289991       -0.0000000000000000        0.0000000000000000     
   236.24310515231855       -0.0000000000000000        0.0000000000000000     
   234.93794400503984       -0.0000000000000000        0.0000000000000000     
   233.66996309407088       -0.0000000000000000        0.0000000000000000     
   232.44271548328715       -0.0000000000000000        0.0000000000000000     
   231.25944653294997       -0.0000000000000000        0.0000000000000000     
   230.12310925784968       -0.0000000000000000        0.0000000000000000     
   229.03638059588005       -0.0000000000000000        0.0000000000000000     
   228.00167818388124       -0.0000000000000000        0.0000000000000000     
   227.02117729427778       -0.0000000000000000        0.0000000000000000     
   226.09682763914216       -0.0000000000000000        0.0000000000000000     
   225.23036979701675       -0.0000000000000000        0.0000000000000000     
   224.42335106163844       -0.0000000000000000        0.0000000000000000     
   223.67714055044817       -0.0000000000000000        0.0000000000000000     
   222.99294344443732       -0.0000000000000000        0.0000000000000000     
   222.37181425966600       -0.0000000000000000        0.0000000000000000     
   221.81466907497281       -0.0000000000000000        0.0000000000000000     
   221.32229666033368       -0.0000000000000000       -0.0000000000000000     
   220.89536846643676       -0.0000000000000000       -0.0000000000000000     
   220.53444744872971       -0.0000000000000000       -0.0000000000000000     
   220.23999570890382       -0.0000000000000000       -0.0000000000000000     
   220.01238094391607       -0.0000000000000000       -0.0000000000000000     
   219.85188169762520       -0.0000000000000000       -0.0000000000000000     
   219.75869141330796       -0.0000000000000000       -0.0000000000000000     
   219.73292128709679       -0.0000000000000000       -0.0000000000000000     
   219.77460192308030       -0.0000000000000000       -0.0000000000000000     
   219.88368379076562       -0.0000000000000000       -0.0000000000000000     
   220.06003648512882       -0.0000000000000000       -0.0000000000000000     
   220.30344678889418       -0.0000000000000000       -0.0000000000000000     
   220.61361553628296       -0.0000000000000000       -0.0000000000000000     
   220.99015327757604       -0.0000000000000000       -0.0000000000000000     
   221.43257474475922       -0.0000000000000000       -0.0000000000000000     
   221.94029212059658       -0.0000000000000000       -0.0000000000000000     
   222.51260711705442       -0.0000000000000000       -0.0000000000000000     
   223.14870187444902       -0.0000000000000000       -0.0000000000000000     
   223.84762870039742       -0.0000000000000000       -0.0000000000000000     
   224.60829867802215       -0.0000000000000000       -0.0000000000000000     
   225.42946918632151       -0.0000000000000000       -0.0000000000000000     
   226.30973039258916       -0.0000000000000000       -0.0000000000000000     
   227.24749079767176       -0.0000000000000000       -0.0000000000000000     
   228.24096194009346       -0.0000000000000000       -0.0000000000000000     
   229.28814239498993       -0.0000000000000000       -0.0000000000000000     
   230.38680123864575       -0.0000000000000000       -0.0000000000000000     
   231.53446118937410       -0.0000000000000000       -0.0000000000000000     
   232.72838168046673       -0.0000000000000000       -0.0000000000000000     
   233.96554217073768       -0.0000000000000000       -0.0000000000000000     
   235.24262605222398       -0.0000000000000000       -0.0000000000000000     
   236.55600557197752       -0.0000000000000000       -0.0000000000000000     
   237.90172824422942       -0.0000000000000000       -0.0000000000000000     
   239.27550528866792       -0.0000000000000000       -0.0000000000000000     
   240.67270268770326       -0.0000000000000000       -0.0000000000000000     
   242.08833550734954       -0.0000000000000000       -0.0000000000000000     
   243.51706616905699       -0.0000000000000000       -0.0000000000000000     
   244.95320738920356       -0.0000000000000000       -0.0000000000000000     
   246.39073051422312       -0.0000000000000000       -0.0000000000000000     
   247.82327996738672       -0.0000000000000000       -0.0000000000000000     
   249.24419448283865       -0.0000000000000000       -0.0000000000000000     
   250.64653572863466       -0.0000000000000000       -0.0000000000000000     
   252.02312480891638       -0.0000000000000000       -0.0000000000000000     
   253.36658698284009       -0.0000000000000000       -0.0000000000000000     
   254.66940474304934       -0.0000000000000000       -0.0000000000000000     
   255.92397916024240       -0.0000000000000000       -0.0000000000000000     
   257.12269912649680       -0.0000000000000000       -0.0000000000000000     
   258.25801782547268       -0.0000000000000000       -0.0000000000000000     
   259.32253543293916       -0.0000000000000000       -0.0000000000000000     
   260.30908672016994       -0.0000000000000000       -0.0000000000000000     
   261.21083191259282       -0.0000000000000000       -0.0000000000000000     
   262.02134886587493        0.0000000000000000       -0.0000000000000000     
   262.73472438163577        0.0000000000000000       -0.0000000000000000     
   263.34564231509626        0.0000000000000000       -0.0000000000000000     
   263.84946604485964        0.0000000000000000       -0.0000000000000000     
   264.24231289444919        0.0000000000000000       -0.0000000000000000     
   264.52111822431345        0.0000000000000000       -0.0000000000000000     
   264.68368715296123        0.0000000000000000       -0.0000000000000000     
   264.72873221023195        0.0000000000000000       -0.0000000000000000     
   264.65589566022692        0.0000000000000000       -0.0000000000000000     
   264.46575573490583        0.0000000000000000       -0.0000000000000000     
   264.15981656501828        0.0000000000000000       -0.0000000000000000     
   263.74048215266203        0.0000000000000000       -0.0000000000000000     
   263.21101526810594        0.0000000000000000       -0.0000000000000000     
   262.57548264296315        0.0000000000000000       -0.0000000000000000     
   261.83868824672265        0.0000000000000000       -0.0000000000000000     
   261.00609675435680        0.0000000000000000       -0.0000000000000000     
   260.08374952681874        0.0000000000000000       -0.0000000000000000     
   259.07817552907289        0.0000000000000000       -0.0000000000000000     
   257.99629960481428        0.0000000000000000       -0.0000000000000000     
   256.84535042279850        0.0000000000000000       -0.0000000000000000     
   255.63277022157567        0.0000000000000000       -0.0000000000000000     
   254.36612822575756        0.0000000000000000       -0.0000000000000000     
   253.05303930786110        0.0000000000000000       -0.0000000000000000     
   251.70108914541777        0.0000000000000000       -0.0000000000000000     
   250.31776679218041        0.0000000000000000       -0.0000000000000000     
   248.91040526119801        0.0000000000000000       -0.0000000000000000     
   247.48613041940783        0.0000000000000000       -0.0000000000000000     
   246.05181822788026        0.0000000000000000       -0.0000000000000000     
   244.61406013515426        0.0000000000000000       -0.0000000000000000     
   243.17913624627576        0.0000000000000000       -0.0000000000000000     
   241.75299574747575        0.0000000000000000       -0.0000000000000000     
   240.34124396406455        0.0000000000000000       -0.0000000000000000     
   238.94913536356697        0.0000000000000000       -0.0000000000000000     
   237.58157178289099        0.0000000000000000       -0.0000000000000000     
   236.24310515230982        0.0000000000000000       -0.0000000000000000     
   234.93794400503134        0.0000000000000000       -0.0000000000000000     
   233.66996309406267        0.0000000000000000       -0.0000000000000000     
   232.44271548327916        0.0000000000000000       -0.0000000000000000     
   231.25944653294235        0.0000000000000000       -0.0000000000000000     
   230.12310925784243        0.0000000000000000       -0.0000000000000000     
   229.03638059587303        0.0000000000000000       -0.0000000000000000     
   228.00167818387465        0.0000000000000000       -0.0000000000000000     
   227.02117729427152        0.0000000000000000       -0.0000000000000000     
   226.09682763913628        0.0000000000000000       -0.0000000000000000     
   225.23036979701124        0.0000000000000000       -0.0000000000000000     
   224.42335106163333        0.0000000000000000       -0.0000000000000000     
   223.67714055044348        0.0000000000000000       -0.0000000000000000     
   222.99294344443297        0.0000000000000000       -0.0000000000000000     
   222.37181425966210        0.0000000000000000       -0.0000000000000000     
   221.81466907496934        0.0000000000000000       -0.0000000000000000     
   221.32229666033069        0.0000000000000000        0.0000000000000000     
   211.50072818816417        6.6466781524041822        0.0000000000000000     
   210.75018017508529        6.6198231351521688       0.20803632300523667     
   210.07312217383785        6.5887866544481959       0.41453131996992382     
   209.47017118373091        6.5536503384288789       0.61950235279909072     
   208.94186113836483        6.5144855745435502       0.82297091352827945     
   208.48864898836985        6.4713535145502812        1.0249617045443358     
   208.11091957204974        6.4243051033500258        1.2255017406289039     
   207.80898925846796        6.3733811291280400        1.4246194679571489     
   207.58310834730372        6.3186122931518582        1.6223438949645586     
   207.43346220864683        6.2600192984443837        1.8187037298583097     
   207.36017114409975        6.1976129574132965        2.0137265194919940     
   207.36328894842393        6.1313943193790976        2.2074377843421122     
   207.44280014881872        6.0613548198084137        2.3998601444233905     
   207.59861589709374        5.9874764539310901        2.5910124311627634     
   207.83056848884479        5.9097319783026760        2.7809087805272652     
   208.13840448366207        5.8280851447700899        2.9695577030810107     
   208.52177640181074        5.7424909722073938        3.1569611271462459     
   208.98023297619622        5.6528960623079350        3.3431134118817427     
   209.51320794428864        5.5592389666422326        3.5280003278908394     
   210.12000737358014        5.4614506131070870        3.7115980039558001     
   210.79979552672293        5.3594548007843548        3.8938718396926721     
   211.55157928938993        5.2531687730753118        4.0747753853605193     
   212.37419120581163        5.1425038797484497        4.2542491917709011     
   213.26627119457891        5.0273663391965204        4.4322196352569412     
   214.22624705134854        4.9076581126945387        4.6085977250029373     
   215.25231388618849        4.7832779027258159        4.7832779027263115     
   216.34241269197469        4.6541222874281551        4.9561368477565315     
   217.49420829686713        4.5200870028266724        5.1270323039706263     
   218.70506701852128        4.3810683836716944        5.2958019488043586     
   219.97203441009356        4.2369649722901466        5.4622623286225647     
   221.29181356749197        4.0876793027800638        5.6262078890314271     
   222.66074455238399        3.9331198650230359        5.7874101331460652     
   224.07478557407623        3.7732032492552543        5.9456169452415972     
   225.52949666256524        3.6078564672349156        6.1005521214219325     
   227.02002665085996        3.4370194403068171        6.2519151526928916     
   228.54110436206810        3.2606476378661537        6.3993813088278104     
   230.08703495962169        3.0787148418876549        6.5426020733171049     
   231.65170246028566        2.8912160044072670        6.6812059801092856     
   233.22857942132254        2.6981701553007995        6.8147999013626448     
   234.81074478698324        2.4996233076775276        6.9429708316124783     
   236.39091080696809        2.2956512980880204        7.0652882072224914     
   237.96145981296596        2.0863624890419201        7.1813067904003480     
   239.51449145267412        1.8719002526617552        7.2905701341983979     
   241.04188073015203        1.6524451473748172        7.3926146287366050     
   242.53534688682069        1.4282166951396791        7.4869741095366562     
   243.98653278323044        1.1994746656022932        7.5731849867653880     
   245.38709401753636       0.96651977651220322        7.6507918300671349     
   246.72879655786380       0.72969372730712190        7.7193533185368253     
   248.00362119363345       0.48937849538636480        7.7784484405542349     
   249.20387265175702       0.24599484233843155        7.8276828052014444     
   250.32229080756923       -8.1350714172865674E-013   7.8666949075003023     
   251.35216107928906      -0.24811546698126619        7.8951621754289381     
   252.28742085969907      -0.49783159548801570        7.9128066191637032     
   253.12275873663614      -0.74860369712006780        7.9193999034991567     
   253.85370330482749      -0.99986768076663868        7.9147676737147936     
   254.47669858582788       -1.2510459059287473        7.8987929834798196     
   254.98916344876218       -1.5015534230050294        7.8714187002362976     
   255.38953294803329       -1.7508044375207148        7.8326487977057280     
   255.67728013860605       -1.9982188233745346        7.7825484849204427     
   255.85291765801415       -2.2432285065554392        7.7212431641882802     
   255.91797913255721       -2.4852835457782527        7.6489162540510334     
   255.87498122558239       -2.7238577497959504        7.5658059549196546     
   255.72736785157207       -2.9584536918378190        7.4722010721605114     
   255.47943868946879       -3.1886070082431801        7.3684360418612602     
   255.13626460953998       -3.4138898990782298        7.2548853267874707     
   254.70359295858000       -3.6339137813083680        7.1319573632933793     
   254.18774581923782       -3.8483310779115687        7.0000882440207475     
   253.59551437373753       -4.0568361572867397        6.8597353166194246     
   252.93405237396155       -4.2591654648690422        6.7113708665176919     
   252.21077147090330       -4.4550969118488739        6.5554760334311419     
   251.43324081451578       -4.6444486035866905        6.3925350885323651     
   250.60909293017943       -4.8270770024488945        6.2230301737835747     
   249.74593744035855       -5.0028746264850712        6.0474365785516531     
   248.85128375697693       -5.1717673870725793        5.8662186027724514     
   247.93247344494708       -5.3337116660545432        5.6798260318248897     
   246.99662256831931       -5.4886912268170613        5.4886912268153560     
   246.05057399042255       -5.6367140450723703        5.2932268157406437     
   245.10085931561130       -5.7778091347010578        5.0938239562766849     
   244.15366993561088       -5.9120234326503134        4.8908511297618924     
   243.21483647689107       -6.0394187952692171        4.6846534181366870     
   242.28981583300506       -6.1600691471398319        4.4755522108492434     
   241.38368490140309       -6.2740578128532887        4.2638452866336669     
   240.50114012072689       -6.3814750525738910        4.0498072151584301     
   239.64650191439608       -6.4824158138068126        3.8336900253697075     
   238.82372318194416       -6.5769777046150226        3.6157240904787473     
   238.03640103406178       -6.6652591876200029        3.3961191835674778     
   237.28779103447641       -6.7473579894126736        3.1750656623682518     
   236.58082328633324       -6.8233697163994886        2.9527357466254620     
   235.91811977833592       -6.8933866654943303        2.7292848563404801     
   235.30201248312565       -6.9574968163070281        2.5048529839622788     
   234.73456177469075       -7.0157829904407274        2.2795660780885463     
   234.21757480118296       -7.0683221630633133        2.0535374204018808     
   233.75262351321649       -7.1151849119440689        1.8268689813326788     
   233.34106210486769       -7.1564349895384813        1.5996527432921861     
   232.98404367494655       -7.1921290043694821        1.3719719832540913     
   232.68253595972047       -7.2223161988135622        1.1439025089944628     
   232.43733602542895       -7.2470383113908090       0.91551384545167158     
   232.24908384005622       -7.2663295127264771       0.68687036947057190     
   232.11827466946710       -7.2802164054579430       0.45803239268246676     
   232.04527026372168       -7.2887180794734556       0.22905719347902218     
   232.03030881577143       -7.2918462149658385       -1.5081222907490913E-012
   232.07351368737946       -7.2896052268494174      -0.22908507321149693     
   232.17490090656625       -7.2819924451120892      -0.45814413162936035     
   232.33438544768461       -7.2689983266510749      -0.68712264666571821     
   232.55178630986666       -7.2506066950685968      -0.91596463714679011     
   232.82683041250598       -7.2267950057826500       -1.1446118823326503     
   233.15915532805434       -7.1975346346406459       -1.3730031623808250     
   233.54831087310245       -7.1627911890131921       -1.6010735222084738     
   233.99375957881756       -7.1225248410953510       -1.8287535548300613     
   234.49487606165255       -7.0766906838572252       -2.0559687004468072     
   235.05094531512103       -7.0252391107683119       -2.2826385578361408     
   235.66115994362920       -6.9681162210729468       -2.5086762049339582     
   236.32461636015279       -6.9052642530193209       -2.7339875259218753     
   237.04030997120617       -6.8366220480416304       -2.9584705426302489     
   237.80712937534210       -6.7621255494622634       -3.1820147486516590     
   238.62384960561567       -6.6817083398146213       -3.4045004452367209     
   239.48912445230479       -6.5953022213804369       -3.6257980788232667     
   240.40147790998498       -6.5028378449792799       -3.8457675809409597     
   241.35929480306717       -6.4042453924294556       -4.0642577122461203     
   242.36081065639107       -6.2994553184025941       -4.2811054135854292     
   243.40410089267363       -6.1883991575991377       -4.4961351682706727     
   244.48706945676247       -6.0710104032542525       -4.7091583811758086     
   245.60743698792018       -5.9472254629152559       -4.9199727818454910     
   246.76272868589629       -5.8169846971801267       -5.1283618605287868     
   247.95026204436348       -5.6802335466150833       -5.3340943479156850     
   249.16713465633731       -5.5369237513380929       -5.5369237513409582     
   250.41021233024549       -5.3870146667213703       -5.7365879623045632     
   251.67611779197162       -5.2304746772858541       -5.9328089523024650     
   252.96122028684979       -5.0672827090905876       -6.1252925761148864     
   254.26162643534786       -4.8974298387194022       -6.3137285037929320     
   255.57317273587307       -4.7209209943021273       -6.4977903045339191     
   256.89142014623707       -4.5377767408530749       -6.6771357073363689     
   258.21165120995420       -4.3480351385567211       -6.8514070646533849     
   259.52887022245147       -4.1517536584886736       -7.0202320460763428     
   260.83780695283741       -3.9490111356665438       -7.1832245892198934     
   262.13292444615530       -3.7399097343463152       -7.3399861342741284     
   263.40843142587715       -3.5245768952220815       -7.4901071669629520     
   264.65829979345409       -3.3031672287962914       -7.6331690917267760     
   265.87628767780177       -3.0758643138588475       -7.7687464526735805     
   267.05596841966718       -2.8428823549850395       -7.8964095140875195     
   268.19076578148082       -2.6044676485206772       -8.0157272049655237     
   269.27399555096224       -2.3608998029896808       -8.1262704231532439     
   270.29891355601978       -2.1124926575863565       -8.2276156842362749     
   271.25876993052395       -1.8595948417609176       -8.3193490885782655     
   272.14686926828443       -1.6025899202227167       -8.4010705670625825     
   272.95663608105207       -1.3418960712790713       -8.4723983525911777     
   273.68168474279207       -1.0779652525399281       -8.5329736107457244     
   274.31589286613786      -0.81128181678497924       -8.5824651498555031     
   274.85347682904307      -0.54236055221486434       -8.6205741187648854     
   275.28906796279966      -0.27174413523336360       -8.6470385906226390     
   275.61778774014499        2.6909868420382620E-012  -8.6616379238022532     
   275.83532017732318       0.27228335329325037       -8.6641967873287626     
   275.93797959871756       0.54450057070509106       -8.6545887385388500     
   275.92277191679216       0.81603411802213022       -8.6327392455633483     
   275.78744765998641        1.0862593379056267       -8.5986280567844080     
   275.53054513916163        1.3545497971746734       -8.5522908335966292     
   275.15142237663173        1.6202828172256905       -8.4938199812054158     
   274.65027672315324        1.8828450708333404       -8.4233646341441375     
   274.02815144513573        2.1416381230893702       -8.3411297777363949     
   273.28692896027479        2.3960837934728674       -8.2473745127147193     
   272.42931081528809        2.6456292201599432       -8.1424094963468878     
   271.45878491332803        2.8897515165224741       -8.0265936183956157     
   270.37958088977928        3.1279619228929163       -7.9003299927889721     
   269.19661488395502        3.3598093733799690       -7.7640613649100150     
   267.91542524410193        3.5848834168997645       -7.6182650490626997     
   266.54210092171974        3.8028164525980204       -7.4634475203703987     
   265.08320445100367        4.0132852613871384       -7.3001387898698962     
   263.54569146789470        4.2160118363481116       -7.1288866909556194     
   261.93682870346032        4.4107635342907647       -6.9502511999810981     
   260.26411229516168        4.5973525880332389       -6.7647989043551098     
   258.53518810755594        4.7756350333578501       -6.5730977186776363     
   256.75777555406188        4.9455091157549349       -6.3757119342488364     
   254.93959617776386        5.1069132498260865       -6.1731976705907812     
   253.08830799615183        5.2598236086354451       -5.9660987803497072     
   251.21144635568933        5.4042514215935871       -5.7549432419145203     
   249.31637178908369        5.5402400579885738       -5.5402400579845610     
   247.41022513095780        5.6678619694857622       -5.3224766636890770     